 Gaussian 16, Revision B.01,
 Gaussian 16:  ES64L-G16RevB.01 20-Dec-2017

 -------------------------------------
 #N TD(NStates=10) PBE1PBE/6-311G(d,p)
 -------------------------------------

 ----
 Name
 ----
 Symbolic Z-matrix:
 Charge =  0 Multiplicity = 1

                         Standard orientation:
 ---------------------------------------------------------------------
 Center     Atomic      Atomic             Coordinates (Angstroms)
 Number     Number       Type             X           Y           Z
 ---------------------------------------------------------------------
      1          6           0        7.854865    6.024058    0.403487
      2          8           0        6.930098    5.445576   -0.507285
      3          6           0        6.551439    4.151509   -0.314600
      4          6           0        7.013084    3.328698    0.716028
      5          6           0        6.548922    2.017843    0.819648
      6          6           0        5.639310    1.501770   -0.102244
      7          7           0        5.195402    0.146676   -0.004616
      8          6           0        3.831426   -0.166409   -0.016121
      9          6           0        3.376849   -1.423317   -0.463194
     10          6           0        2.028745   -1.730473   -0.469197
     11          6           0        1.058040   -0.808007   -0.035304
     12          6           0        1.519446    0.446258    0.403126
     13          6           0        2.865936    0.763307    0.416735
     14          1           0        3.182701    1.731893    0.780526
     15          1           0        0.810972    1.178648    0.774162
     16          6           0       -0.355386   -1.156756   -0.040233
     17         16           0       -1.598290    0.071945   -0.059677
     18          6           0       -2.889919   -1.128032   -0.041858
     19          6           0       -2.339225   -2.399356   -0.041965
     20          6           0       -0.933701   -2.413395   -0.039446
     21          1           0       -0.351646   -3.324188   -0.004324
     22          1           0       -2.952581   -3.286838   -0.029235
     23          6           0       -4.274635   -0.725308   -0.027824
     24          6           0       -4.663327    0.611667    0.041976
     25          6           0       -5.998093    1.048696    0.058794
     26          6           0       -7.081872    0.178411    0.008897
     27          6           0       -6.743828   -1.219490   -0.067869
     28          6           0       -5.365060   -1.673476   -0.086099
     29          7           0       -5.257420   -3.000011   -0.162402
     30         16           0       -6.774991   -3.613123   -0.206354
     31          7           0       -7.627557   -2.214635   -0.131885
     32          6           0       -8.479634    0.528438    0.026300
     33          6           0       -9.115721    1.732156    0.098297
     34          6           0       -8.432816    2.976899    0.214181
     35          7           0       -7.859740    3.978005    0.290750
     36          6           0      -10.612934    1.843960    0.167833
     37          8           0      -11.170170    2.794364    0.639908
     38          8           0      -11.326407    0.795559   -0.320491
     39          1           0      -10.764773    0.217454   -0.849414
     40          1           0       -9.119864   -0.348824    0.005237
     41          1           0       -6.169390    2.114206    0.118876
     42          1           0       -3.896732    1.375424    0.092792
     43          1           0        1.717481   -2.694805   -0.853227
     44          1           0        4.091832   -2.151590   -0.822929
     45          6           0        6.182485   -0.880510    0.109488
     46          6           0        7.243138   -0.949132   -0.792860
     47          6           0        8.226109   -1.931155   -0.674294
     48          6           0        8.146178   -2.876241    0.351647
     49          6           0        7.080856   -2.813495    1.259788
     50          6           0        6.119176   -1.823881    1.145719
     51          1           0        5.306643   -1.776838    1.861042
     52          1           0        7.039224   -3.545811    2.056842
     53          8           0        9.042096   -3.882022    0.555863
     54          6           0       10.140418   -4.002717   -0.337475
     55          1           0        9.804647   -4.183713   -1.364656
     56          1           0       10.777211   -3.111220   -0.314833
     57          1           0       10.712574   -4.861240    0.009852
     58          1           0        9.036138   -1.951624   -1.390748
     59          1           0        7.307425   -0.223104   -1.594546
     60          6           0        5.191810    2.330782   -1.141623
     61          6           0        5.633098    3.639345   -1.240941
     62          1           0        5.292087    4.286042   -2.040189
     63          1           0        4.491923    1.941314   -1.871452
     64          1           0        6.906439    1.386992    1.624756
     65          1           0        7.721313    3.693910    1.447422
     66          1           0        8.009898    7.045443    0.060366
     67          1           0        7.455829    6.042205    1.423759
     68          1           0        8.812336    5.491153    0.396740
 ---------------------------------------------------------------------

 SCF Done:  E(RPBE1PBE) =  -2624.36342554     A.U. after   19 cycles

 Excitation energies and oscillator strengths:

 Excited State   1:      Singlet-A      1.7416 eV  711.90 nm  f=0.6878  <S**2>=0.000
     160 ->161         0.70668
 This state for optimization and/or second-order correction.
 Total Energy, E(TD-HF/TD-DFT) =  -2624.29942293
 Copying the excited state density for this state as the 1-particle RhoCI density.

 Excited State   2:      Singlet-A      2.5288 eV  490.29 nm  f=0.3363  <S**2>=0.000
     159 ->161         0.68596
     160 ->162        -0.11797

 Excited State   3:      Singlet-A      2.9092 eV  426.17 nm  f=0.3384  <S**2>=0.000
     159 ->161         0.12035
     159 ->162         0.11509
     160 ->162         0.67417
     160 ->163         0.11324

 Excited State   4:      Singlet-A      3.2526 eV  381.18 nm  f=0.0058  <S**2>=0.000
     157 ->161         0.10981
     158 ->161         0.69364

 Excited State   5:      Singlet-A      3.2982 eV  375.91 nm  f=0.1823  <S**2>=0.000
     157 ->161         0.54040
     158 ->161        -0.12548
     160 ->163         0.41182

 Excited State   6:      Singlet-A      3.4024 eV  364.40 nm  f=0.2606  <S**2>=0.000
     154 ->161        -0.12215
     156 ->161        -0.12792
     157 ->161        -0.36540
     159 ->162         0.16855
     160 ->162        -0.13597
     160 ->163         0.51895

 Excited State   7:      Singlet-A      3.5425 eV  349.99 nm  f=0.0211  <S**2>=0.000
     154 ->161         0.42770
     155 ->161         0.11449
     156 ->161         0.46583
     157 ->161        -0.10297
     159 ->162         0.23226

 Excited State   8:      Singlet-A      3.6708 eV  337.76 nm  f=0.0470  <S**2>=0.000
     154 ->161        -0.10789
     156 ->161         0.20184
     159 ->162        -0.30320
     160 ->164         0.55928

 Excited State   9:      Singlet-A      3.6869 eV  336.29 nm  f=0.1165  <S**2>=0.000
     154 ->161        -0.15862
     155 ->161        -0.10607
     157 ->161         0.16875
     159 ->162         0.52397
     160 ->163        -0.13566
     160 ->164         0.32162

 Excited State  10:      Singlet-A      3.7895 eV  327.18 nm  f=0.0075  <S**2>=0.000
     153 ->161         0.22626
     154 ->161        -0.37835
     155 ->161        -0.20666
     156 ->161         0.43603
     160 ->164        -0.25173

 The electronic state is 1-A.
 Alpha  occ. eigenvalues --  -89.12670 -89.06038 -19.25007 -19.24436 -19.24348
 Alpha  occ. eigenvalues --  -19.18788 -14.43963 -14.43759 -14.42852 -14.38157
 Alpha  occ. eigenvalues --  -10.36337 -10.30440 -10.30300 -10.29827 -10.29754
 Alpha  occ. eigenvalues --  -10.28736 -10.28727 -10.28646 -10.28490 -10.28480
 Alpha  occ. eigenvalues --  -10.28424 -10.28390 -10.28013 -10.27454 -10.27403
 Alpha  occ. eigenvalues --  -10.27206 -10.26467 -10.26368 -10.25753 -10.25211
 Alpha  occ. eigenvalues --  -10.24501 -10.24298 -10.24250 -10.24100 -10.24071
 Alpha  occ. eigenvalues --  -10.24070 -10.24042 -10.24007 -10.23889 -10.23817
 Alpha  occ. eigenvalues --  -10.23540 -10.23538 -10.23508 -10.23458  -8.10693
 Alpha  occ. eigenvalues --   -8.04429  -6.04478  -6.03901  -6.03678  -5.98108
 Alpha  occ. eigenvalues --   -5.97742  -5.97388  -1.13897  -1.10922  -1.10837
 Alpha  occ. eigenvalues --   -1.07339  -1.05741  -1.00847  -0.94676  -0.94193
 Alpha  occ. eigenvalues --   -0.93346  -0.91347  -0.89807  -0.89766  -0.87965
 Alpha  occ. eigenvalues --   -0.86707  -0.82632  -0.81031  -0.80548  -0.80173
 Alpha  occ. eigenvalues --   -0.79102  -0.78980  -0.78588  -0.77494  -0.76942
 Alpha  occ. eigenvalues --   -0.75264  -0.73458  -0.72336  -0.70679  -0.68370
 Alpha  occ. eigenvalues --   -0.66487  -0.66146  -0.65678  -0.64953  -0.64700
 Alpha  occ. eigenvalues --   -0.64475  -0.63276  -0.62570  -0.60737  -0.59906
 Alpha  occ. eigenvalues --   -0.58744  -0.58148  -0.57186  -0.57115  -0.55917
 Alpha  occ. eigenvalues --   -0.55121  -0.54433  -0.54290  -0.53068  -0.52291
 Alpha  occ. eigenvalues --   -0.51909  -0.50909  -0.49674  -0.49579  -0.49357
 Alpha  occ. eigenvalues --   -0.49030  -0.48475  -0.47699  -0.47642  -0.47545
 Alpha  occ. eigenvalues --   -0.47468  -0.46436  -0.46231  -0.45537  -0.45251
 Alpha  occ. eigenvalues --   -0.45075  -0.44989  -0.44662  -0.44050  -0.43673
 Alpha  occ. eigenvalues --   -0.43462  -0.42693  -0.41875  -0.41811  -0.41502
 Alpha  occ. eigenvalues --   -0.41259  -0.41162  -0.40900  -0.40843  -0.40799
 Alpha  occ. eigenvalues --   -0.40226  -0.39731  -0.39338  -0.38518  -0.38475
 Alpha  occ. eigenvalues --   -0.38055  -0.37776  -0.37442  -0.36200  -0.35923
 Alpha  occ. eigenvalues --   -0.35429  -0.35336  -0.35239  -0.35154  -0.34725
 Alpha  occ. eigenvalues --   -0.33941  -0.33449  -0.33087  -0.32023  -0.29879
 Alpha  occ. eigenvalues --   -0.29860  -0.29068  -0.28715  -0.28130  -0.28055
 Alpha  occ. eigenvalues --   -0.27725  -0.26194  -0.25426  -0.23062  -0.19808
 Alpha virt. eigenvalues --   -0.12359  -0.07687  -0.05633  -0.03215  -0.01558
 Alpha virt. eigenvalues --   -0.01455  -0.01146  -0.00915  -0.00733  -0.00243
 Alpha virt. eigenvalues --    0.01436   0.01931   0.02250   0.02847   0.04085

 Mulliken charges:
               1
     1  C   -0.178802
     2  O   -0.356940
     3  C    0.182743
     4  C   -0.140288
     5  C   -0.065359
     6  C    0.043597
     7  N   -0.548136
     8  C    0.215909
     9  C   -0.124140
    10  C   -0.044289
    11  C   -0.009647
    12  C   -0.105433
    13  C   -0.124655
    14  H    0.135291
    15  H    0.116140
    16  C   -0.286916
    17  S    0.357449
    18  C   -0.310496
    19  C   -0.003552
    20  C   -0.050961
    21  H    0.111121
    22  H    0.139564
    23  C    0.132572
    24  C   -0.137619
    25  C   -0.038539
    26  C   -0.082085
    27  C    0.150384
    28  C    0.166999
    29  N   -0.541228
    30  S    0.573148
    31  N   -0.529243
    32  C    0.044597
    33  C   -0.193228
    34  C    0.107736
    35  N   -0.277789
    36  C    0.466896
    37  O   -0.302950
    38  O   -0.305985
    39  H    0.250500
    40  H    0.127934
    41  H    0.143400
    42  H    0.120171
    43  H    0.105116
    44  H    0.134239
    45  C    0.043092
    46  C   -0.064789
    47  C   -0.140397
    48  C    0.182498
    49  C   -0.095980
    50  C   -0.062468
    51  H    0.120326
    52  H    0.119921
    53  O   -0.357395
    54  C   -0.178746
    55  H    0.128436
    56  H    0.127754
    57  H    0.145808
    58  H    0.122867
    59  H    0.116907
    60  C   -0.062509
    61  C   -0.095496
    62  H    0.120607
    63  H    0.120431
    64  H    0.116590
    65  H    0.122851
    66  H    0.146179
    67  H    0.128955
    68  H    0.127335
 Sum of Mulliken charges =  -0.00000

 Dipole moment (field-independent basis, Debye):
    X=             13.9691    Y=             -5.5984    Z=             -1.5914  Tot=             15.1331
 Quadrupole moment (field-independent basis, Debye-Ang):
   XX=           -294.2147   YY=           -263.3410   ZZ=           -265.2236
   XY=             63.5203   XZ=             16.2539   YZ=              5.2766

 Normal termination of Gaussian 16 at Thu Jul  8 13:06:05 2021.
