 Gaussian 09, Revision D.01,
 Gaussian 09:  ES64L-G09RevD.01 24-Apr-2013

 ------------------------
 #N B3LYP/6-311G(d,p) OPT
 ------------------------

 ----
 Name
 ----
 Symbolic Z-matrix:
 Charge =  0 Multiplicity = 1

 SCF Done:  E(RB3LYP) =  -2256.19742311     A.U. after   19 cycles
 SCF Done:  E(RB3LYP) =  -2256.21424384     A.U. after   14 cycles
 SCF Done:  E(RB3LYP) =  -2256.21929075     A.U. after   15 cycles
 SCF Done:  E(RB3LYP) =  -2256.22145842     A.U. after   15 cycles
 SCF Done:  E(RB3LYP) =  -2256.22236389     A.U. after   15 cycles
 SCF Done:  E(RB3LYP) =  -2256.22392448     A.U. after   14 cycles
 SCF Done:  E(RB3LYP) =  -2256.22445206     A.U. after   14 cycles
 SCF Done:  E(RB3LYP) =  -2256.22452513     A.U. after   14 cycles
 SCF Done:  E(RB3LYP) =  -2256.22482351     A.U. after   12 cycles
 SCF Done:  E(RB3LYP) =  -2256.22496691     A.U. after   13 cycles
 SCF Done:  E(RB3LYP) =  -2256.22500073     A.U. after   12 cycles
 SCF Done:  E(RB3LYP) =  -2256.22501436     A.U. after   11 cycles
 SCF Done:  E(RB3LYP) =  -2256.22501786     A.U. after   11 cycles
 SCF Done:  E(RB3LYP) =  -2256.22501931     A.U. after    9 cycles
 SCF Done:  E(RB3LYP) =  -2256.22501978     A.U. after    9 cycles
 SCF Done:  E(RB3LYP) =  -2256.22502002     A.U. after    8 cycles
 SCF Done:  E(RB3LYP) =  -2256.22502008     A.U. after    8 cycles
 SCF Done:  E(RB3LYP) =  -2256.22502011     A.U. after    8 cycles
 Optimization completed.
    -- Stationary point found.

                         Standard orientation:
 ---------------------------------------------------------------------
 Center     Atomic      Atomic             Coordinates (Angstroms)
 Number     Number       Type             X           Y           Z
 ---------------------------------------------------------------------
      1          7           0       -4.334466    0.091766   -0.012098
      2          6           0       -4.941970   -1.170533    0.004853
      3          6           0       -6.328753   -1.213314   -0.218484
      4          6           0       -7.002632   -2.424504   -0.212842
      5          6           0       -6.312191   -3.616267    0.013202
      6          6           0       -4.940634   -3.574271    0.240283
      7          6           0       -4.249417   -2.364901    0.240740
      8          6           0       -0.474431    0.860577   -0.018027
      9          6           0       -1.218523    2.052229    0.003721
     10          6           0       -2.651490    1.845206    0.024011
     11          7           0       -3.382760    2.960053    0.042894
     12         16           0       -2.298314    4.190193    0.041470
     13          7           0       -0.885998    3.353582    0.014083
     14          6           0       -3.036354    0.485715    0.013173
     15         16           0       -1.609346   -0.495226   -0.027785
     16          8           0        8.054517   -1.577076   -0.010016
     17          6           0        6.738194   -1.891467   -0.017132
     18          6           0        5.777462   -0.743968   -0.010336
     19          6           0        6.301212    0.571355    0.003465
     20          7           0        6.788499    1.624046    0.014797
     21          6           0        4.436397   -1.034883   -0.017817
     22          6           0        3.317712   -0.170759   -0.014335
     23          6           0        3.208502    1.218811   -0.001343
     24          6           0        1.898244    1.693908   -0.001857
     25          6           0        0.932798    0.680079   -0.014568
     26         16           0        1.698955   -0.887135   -0.027690
     27          8           0        6.387007   -3.042960   -0.028360
     28          1           0       -4.973091    0.875945   -0.069114
     29          1           0       -6.870426   -0.290628   -0.400821
     30          1           0       -8.071919   -2.438539   -0.388340
     31          1           0       -6.838887   -4.562569    0.013870
     32          1           0       -4.392185   -4.490411    0.425331
     33          1           0       -3.189181   -2.369351    0.446427
     34          1           0        8.185026   -0.618623   -0.001280
     35          1           0        4.237378   -2.103645   -0.028132
     36          1           0        4.072089    1.868944    0.008468
     37          1           0        1.626597    2.739637    0.006703
 ---------------------------------------------------------------------

 The electronic state is 1-A.
 Alpha  occ. eigenvalues --  -88.96659 -88.93237 -88.89364 -19.15698 -19.09448
 Alpha  occ. eigenvalues --  -14.41155 -14.38181 -14.36913 -14.31630 -10.30214
 Alpha  occ. eigenvalues --  -10.30201 -10.26279 -10.25724 -10.25498 -10.24506
 Alpha  occ. eigenvalues --  -10.23826 -10.22455 -10.22070 -10.21590 -10.21511
 Alpha  occ. eigenvalues --  -10.21065 -10.20922 -10.20746 -10.20694 -10.20029
 Alpha  occ. eigenvalues --  -10.19939 -10.19116  -8.04852  -8.01794  -7.98026
 Alpha  occ. eigenvalues --   -6.01270  -6.00674  -6.00478  -5.98112  -5.97704
 Alpha  occ. eigenvalues --   -5.97377  -5.94335  -5.93969  -5.93572  -1.09873
 Alpha  occ. eigenvalues --   -1.05460  -1.02097  -1.01731  -0.92716  -0.92049
 Alpha  occ. eigenvalues --   -0.91906  -0.90222  -0.88435  -0.83599  -0.80237
 Alpha  occ. eigenvalues --   -0.79554  -0.78484  -0.77563  -0.76079  -0.72954
 Alpha  occ. eigenvalues --   -0.68796  -0.67501  -0.65901  -0.65470  -0.62455
 Alpha  occ. eigenvalues --   -0.61877  -0.61257  -0.58852  -0.58103  -0.56471
 Alpha  occ. eigenvalues --   -0.55525  -0.55022  -0.52699  -0.52446  -0.49675
 Alpha  occ. eigenvalues --   -0.49145  -0.48110  -0.47272  -0.46612  -0.46231
 Alpha  occ. eigenvalues --   -0.45491  -0.45185  -0.45032  -0.44106  -0.43750
 Alpha  occ. eigenvalues --   -0.42163  -0.41950  -0.40275  -0.40139  -0.39834
 Alpha  occ. eigenvalues --   -0.38841  -0.38454  -0.38342  -0.37765  -0.37120
 Alpha  occ. eigenvalues --   -0.36996  -0.36636  -0.35703  -0.34986  -0.34955
 Alpha  occ. eigenvalues --   -0.33377  -0.32403  -0.31140  -0.30290  -0.29108
 Alpha  occ. eigenvalues --   -0.28103  -0.27661  -0.27569  -0.25342  -0.19674
 Alpha virt. eigenvalues --   -0.13075  -0.09419  -0.04756  -0.04366  -0.04218
 Alpha virt. eigenvalues --   -0.02078  -0.01555   0.00293   0.01339   0.01821
 Alpha virt. eigenvalues --    0.01921   0.02387   0.03111   0.03285   0.04099

 Mulliken charges:
               1
     1  N   -0.461043
     2  C    0.199205
     3  C   -0.106196
     4  C   -0.093105
     5  C   -0.084300
     6  C   -0.100665
     7  C   -0.105077
     8  C   -0.315629
     9  C    0.240109
    10  C    0.121666
    11  N   -0.489887
    12  S    0.573817
    13  N   -0.501749
    14  C    0.038753
    15  S    0.411791
    16  O   -0.306263
    17  C    0.455036
    18  C   -0.200637
    19  C   -0.019302
    20  N   -0.244929
    21  C    0.060995
    22  C   -0.284679
    23  C   -0.002857
    24  C   -0.005905
    25  C   -0.182683
    26  S    0.294064
    27  O   -0.327990
    28  H    0.253531
    29  H    0.101549
    30  H    0.106146
    31  H    0.105306
    32  H    0.106483
    33  H    0.125400
    34  H    0.253105
    35  H    0.127499
    36  H    0.135108
    37  H    0.123335
 Sum of Mulliken charges =   0.00000

 Dipole moment (field-independent basis, Debye):
    X=            -12.9822    Y=              1.1654    Z=             -0.0215  Tot=             13.0344
 Quadrupole moment (field-independent basis, Debye-Ang):
   XX=           -194.6726   YY=           -177.8200   ZZ=           -179.7219
   XY=             18.2631   XZ=              1.8104   YZ=             -1.0461

 Normal termination of Gaussian 09 at Wed Aug 25 17:57:46 2021.
