 Gaussian 16, Revision B.01,
 Gaussian 16:  ES64L-G16RevB.01 20-Dec-2017

 ------------------------------------------------------------------
 #N TD(NStates=10)CAM-B3lYP/6-31G(d) SCRF=(Solvent=Dichloromethane)
 ------------------------------------------------------------------

 ----
 Name
 ----
 Symbolic Z-matrix:
 Charge =  0 Multiplicity = 1

                         Standard orientation:
 ---------------------------------------------------------------------
 Center     Atomic      Atomic             Coordinates (Angstroms)
 Number     Number       Type             X           Y           Z
 ---------------------------------------------------------------------
      1          6           0        7.546561   -1.280310    2.683097
      2          6           0        8.592842   -0.800254    1.678459
      3          6           0        7.982348   -0.250768    0.559527
      4          6           0        6.560027   -0.312166    0.721275
      5         16           0        5.139569    0.126570   -0.154442
      6          6           0        4.110677   -0.497597    1.154165
      7          6           0        4.886064   -1.009111    2.184047
      8          6           0        6.267212   -0.903068    1.938473
      9          1           0        4.434723   -1.436566    3.066072
     10          6           0        2.664740   -0.421969    1.036834
     11          6           0        2.033004    0.180668   -0.038723
     12          6           0        0.630861    0.259925   -0.188264
     13          6           0       -0.271476   -0.248550    0.727084
     14          6           0        0.325305   -0.886039    1.870252
     15          7           0       -0.341718   -1.432283    2.889414
     16         16           0        0.764611   -2.009353    3.945696
     17          7           0        2.137532   -1.584801    3.156203
     18          6           0        1.773595   -0.971653    2.029089
     19          6           0       -1.727905   -0.129793    0.534743
     20          6           0       -2.627700   -1.127090    0.949407
     21          6           0       -3.989468   -1.015240    0.716343
     22          6           0       -4.520458    0.105162    0.056672
     23          6           0       -3.630876    1.111584   -0.353867
     24          6           0       -2.271351    0.992571   -0.114460
     25          1           0       -1.618590    1.799849   -0.426000
     26          1           0       -4.012512    1.990779   -0.857038
     27          7           0       -5.905965    0.218076   -0.183178
     28          6           0       -6.541714    1.490986   -0.162595
     29          6           0       -7.452277    1.849593   -1.164607
     30          6           0       -8.080003    3.087880   -1.142777
     31          6           0       -7.814461    4.022365   -0.129081
     32          6           0       -6.902809    3.649608    0.871239
     33          6           0       -6.281857    2.406948    0.863770
     34          1           0       -5.595470    2.138317    1.657746
     35          1           0       -6.698462    4.333679    1.687379
     36          6           0       -8.431479    5.372355   -0.123591
     37          6           0       -7.655440    6.504999    0.184186
     38          6           0       -8.175336    7.787662    0.179345
     39          6           0       -9.520917    7.991698   -0.146516
     40          6           0      -10.322163    6.890794   -0.449187
     41          6           0       -9.781010    5.603663   -0.436548
     42          8           0      -10.630860    4.567494   -0.772508
     43          6           0      -11.174607    3.854858    0.341958
     44          1           0      -11.768846    4.521873    0.977035
     45          1           0      -11.818644    3.079567   -0.072520
     46          1           0      -10.385781    3.390238    0.941552
     47          1           0      -11.366991    6.989955   -0.708897
     48          8           0       -9.950727    9.284025   -0.144623
     49          6           0      -11.303899    9.547345   -0.489284
     50          1           0      -11.419341   10.628514   -0.434744
     51          1           0      -11.531966    9.209206   -1.506079
     52          1           0      -11.997205    9.073730    0.214791
     53          1           0       -7.557214    8.648199    0.402949
     54          1           0       -6.602998    6.368378    0.405019
     55          1           0       -8.776499    3.344012   -1.929784
     56          1           0       -7.660802    1.152742   -1.967442
     57          6           0       -6.684190   -0.938764   -0.477466
     58          6           0       -7.924033   -1.137885    0.141914
     59          6           0       -8.692136   -2.255911   -0.153082
     60          6           0       -8.251760   -3.224345   -1.068286
     61          6           0       -7.002848   -3.017724   -1.673254
     62          6           0       -6.234035   -1.894297   -1.394612
     63          1           0       -5.276141   -1.759105   -1.882366
     64          1           0       -6.622935   -3.753594   -2.372990
     65          6           0       -9.074355   -4.404066   -1.438322
     66          6           0       -9.741533   -5.204812   -0.488005
     67          6           0      -10.490422   -6.320690   -0.879745
     68          6           0      -10.589114   -6.656541   -2.233187
     69          6           0       -9.938791   -5.878317   -3.191525
     70          6           0       -9.200749   -4.778553   -2.783035
     71          1           0       -8.714408   -4.166883   -3.534234
     72          1           0      -10.032331   -6.144342   -4.236502
     73          8           0      -11.299441   -7.720324   -2.704903
     74          6           0      -11.985477   -8.550716   -1.780708
     75          1           0      -12.745332   -7.991399   -1.222891
     76          1           0      -12.473802   -9.319260   -2.377619
     77          1           0      -11.294191   -9.027627   -1.076442
     78          1           0      -10.986088   -6.922385   -0.134488
     79          8           0       -9.602716   -4.840751    0.820595
     80          6           0      -10.183472   -5.647349    1.833286
     81          1           0      -11.275635   -5.680701    1.748293
     82          1           0       -9.784755   -6.667732    1.813423
     83          1           0       -9.912805   -5.176009    2.776807
     84          1           0       -9.646101   -2.386068    0.339831
     85          1           0       -8.285881   -0.405206    0.853395
     86          1           0       -4.654626   -1.802552    1.047713
     87          1           0       -2.255914   -1.998856    1.468874
     88          1           0        0.252500    0.727024   -1.089395
     89          1           0        2.635999    0.614377   -0.828430
     90         16           0        9.123789    0.305543   -0.605419
     91          6           0       10.469575   -0.212829    0.424075
     92          6           0        9.994005   -0.777274    1.599899
     93          1           0       10.653402   -1.174492    2.359953
     94          6           0       11.846087   -0.026495    0.002967
     95          6           0       12.911052   -0.188287    0.914530
     96          6           0       14.220700   -0.019765    0.513571
     97          6           0       14.553611    0.327482   -0.814183
     98          6           0       13.488229    0.495374   -1.724850
     99          6           0       12.178791    0.320031   -1.325168
    100          1           0       11.391855    0.441040   -2.060468
    101          1           0       13.683793    0.758683   -2.755101
    102          6           0       15.951965    0.484358   -1.128773
    103          6           0       16.598111    0.801101   -2.284978
    104          6           0       15.969472    1.065192   -3.530449
    105          7           0       15.544201    1.294906   -4.583914
    106          6           0       18.103574    0.878389   -2.242749
    107          8           0       18.738018    0.672509   -1.243038
    108          8           0       18.723307    1.195286   -3.399137
    109          1           0       18.087752    1.332222   -4.115879
    110          1           0       16.637229    0.323158   -0.300363
    111          1           0       15.018492   -0.148074    1.237166
    112          1           0       12.704703   -0.430789    1.949174
    113          6           0        7.637268   -2.804247    2.911604
    114          1           0        7.558605   -3.347206    1.967676
    115          1           0        8.589316   -3.066421    3.381452
    116          1           0        6.831512   -3.140233    3.569513
    117          6           0        7.660911   -0.524229    4.024198
    118          1           0        7.602613    0.555306    3.871714
    119          1           0        6.853024   -0.819794    4.698782
    120          1           0        8.611489   -0.752222    4.514437
 ---------------------------------------------------------------------

 SCF Done:  E(RCAM-B3LYP) =  -4215.45646506     A.U. after   16 cycles

 Excitation energies and oscillator strengths:

 Excited State   1:      Singlet-A      2.3791 eV  521.13 nm  f=2.2250  <S**2>=0.000
     264 -> 270       -0.12357
     265 -> 270        0.11064
     267 -> 269       -0.34357
     268 -> 269        0.51265
     268 -> 270        0.25463
 This state for optimization and/or second-order correction.
 Total Energy, E(TD-HF/TD-DFT) =  -4215.36903387
 Copying the excited state density for this state as the 1-particle RhoCI density.

 Excited State   2:      Singlet-A      2.9217 eV  424.36 nm  f=0.2989  <S**2>=0.000
     264 -> 269       -0.15125
     265 -> 269        0.17870
     267 -> 269        0.33315
     267 -> 270       -0.19021
     268 -> 270        0.49707
     268 -> 271        0.12893

 Excited State   3:      Singlet-A      3.3127 eV  374.27 nm  f=0.0691  <S**2>=0.000
     267 -> 269        0.34641
     267 -> 270        0.48709
     268 -> 269        0.29158

 Excited State   4:      Singlet-A      3.8035 eV  325.97 nm  f=0.0690  <S**2>=0.000
     259 -> 269        0.12492
     264 -> 269        0.16649
     264 -> 270       -0.15328
     265 -> 269       -0.10017
     265 -> 270        0.15228
     267 -> 269       -0.15565
     267 -> 270        0.19518
     267 -> 271       -0.27447
     268 -> 269       -0.12894
     268 -> 270        0.12441
     268 -> 271        0.41506

 Excited State   5:      Singlet-A      3.9156 eV  316.65 nm  f=0.2087  <S**2>=0.000
     264 -> 269        0.21726
     265 -> 269       -0.16648
     267 -> 270        0.20537
     267 -> 271        0.24250
     268 -> 269       -0.28312
     268 -> 270        0.35036
     268 -> 271       -0.21455
     268 -> 272        0.10136
     268 -> 273       -0.10697

 Excited State   6:      Singlet-A      4.0865 eV  303.40 nm  f=0.0222  <S**2>=0.000
     259 -> 270        0.15596
     264 -> 269       -0.31718
     264 -> 270       -0.10261
     265 -> 269        0.32032
     265 -> 270        0.19846
     266 -> 269        0.12239
     267 -> 269       -0.22509
     267 -> 270        0.23340
     268 -> 269       -0.21795

 Excited State   7:      Singlet-A      4.1235 eV  300.67 nm  f=1.0112  <S**2>=0.000
     267 -> 272        0.29042
     267 -> 273        0.21561
     268 -> 272        0.45955
     268 -> 273        0.28895
     268 -> 288        0.10043

 Excited State   8:      Singlet-A      4.2229 eV  293.60 nm  f=0.6505  <S**2>=0.000
     267 -> 271        0.20597
     267 -> 273        0.15463
     268 -> 270        0.11141
     268 -> 272       -0.27983
     268 -> 273        0.45260

 Excited State   9:      Singlet-A      4.3875 eV  282.58 nm  f=0.1160  <S**2>=0.000
     252 -> 269        0.12386
     259 -> 269        0.27752
     260 -> 269        0.10353
     264 -> 269        0.13228
     264 -> 270       -0.21013
     265 -> 270        0.19811
     266 -> 269        0.13336
     266 -> 270        0.12998
     267 -> 269        0.13782
     267 -> 270       -0.15555
     267 -> 275       -0.13220
     268 -> 271       -0.15349
     268 -> 275       -0.23085

 Excited State  10:      Singlet-A      4.3945 eV  282.13 nm  f=0.1589  <S**2>=0.000
     259 -> 269        0.17595
     264 -> 270       -0.11843
     265 -> 270        0.12330
     267 -> 275        0.24640
     268 -> 274        0.14333
     268 -> 275        0.45237

 The electronic state is 1-A.
 Alpha  occ. eigenvalues --  -89.04895 -88.99422 -88.99024 -19.27863 -19.25248
 Alpha  occ. eigenvalues --  -19.25215 -19.25181 -19.23573 -19.22142 -14.44920
 Alpha  occ. eigenvalues --  -14.44903 -14.43833 -14.43293 -10.41777 -10.32910
 Alpha  occ. eigenvalues --  -10.32869 -10.32669 -10.32617 -10.32550 -10.32340
 Alpha  occ. eigenvalues --  -10.32113 -10.32052 -10.32041 -10.30947 -10.30941
 Alpha  occ. eigenvalues --  -10.30894 -10.30891 -10.30858 -10.30855 -10.30849
 Alpha  occ. eigenvalues --  -10.30553 -10.30465 -10.30457 -10.30305 -10.30283
 Alpha  occ. eigenvalues --  -10.30031 -10.29370 -10.29359 -10.29159 -10.28671
 Alpha  occ. eigenvalues --  -10.28604 -10.28245 -10.28105 -10.28033 -10.27935
 Alpha  occ. eigenvalues --  -10.27861 -10.27435 -10.27390 -10.27233 -10.27201
 Alpha  occ. eigenvalues --  -10.27126 -10.27060 -10.26852 -10.26767 -10.26759
 Alpha  occ. eigenvalues --  -10.26564 -10.26491 -10.26462 -10.26416 -10.26278
 Alpha  occ. eigenvalues --  -10.26246 -10.26228 -10.26213 -10.26164 -10.26145
 Alpha  occ. eigenvalues --  -10.26116 -10.26108 -10.26046 -10.26021 -10.26011
 Alpha  occ. eigenvalues --  -10.25808 -10.25513 -10.25508 -10.25190  -8.10501
 Alpha  occ. eigenvalues --   -8.05528  -8.05140  -6.07157  -6.06548  -6.06304
 Alpha  occ. eigenvalues --   -6.02053  -6.01674  -6.01672  -6.01291  -6.01280
 Alpha  occ. eigenvalues --   -6.00878  -1.19771  -1.14771  -1.14700  -1.14550
 Alpha  occ. eigenvalues --   -1.12996  -1.11486  -1.10916  -1.05003  -1.01359
 Alpha  occ. eigenvalues --   -1.00590  -0.98200  -0.97498  -0.96430  -0.95398
 Alpha  occ. eigenvalues --   -0.95046  -0.94667  -0.93636  -0.93100  -0.92508
 Alpha  occ. eigenvalues --   -0.91940  -0.90905  -0.87562  -0.86961  -0.86469
 Alpha  occ. eigenvalues --   -0.85475  -0.84928  -0.84811  -0.84241  -0.83560
 Alpha  occ. eigenvalues --   -0.83515  -0.83114  -0.82768  -0.82617  -0.82107
 Alpha  occ. eigenvalues --   -0.81835  -0.81361  -0.81343  -0.79678  -0.79219
 Alpha  occ. eigenvalues --   -0.78305  -0.77666  -0.77032  -0.76011  -0.75730
 Alpha  occ. eigenvalues --   -0.74767  -0.72939  -0.71183  -0.70982  -0.70836
 Alpha  occ. eigenvalues --   -0.70321  -0.70029  -0.69714  -0.69118  -0.68783
 Alpha  occ. eigenvalues --   -0.68570  -0.67695  -0.67497  -0.67114  -0.66805
 Alpha  occ. eigenvalues --   -0.66296  -0.65665  -0.65369  -0.64350  -0.63802
 Alpha  occ. eigenvalues --   -0.62110  -0.61824  -0.61462  -0.60900  -0.60709
 Alpha  occ. eigenvalues --   -0.60566  -0.60074  -0.59897  -0.58474  -0.57718
 Alpha  occ. eigenvalues --   -0.57443  -0.57268  -0.57031  -0.56336  -0.55884
 Alpha  occ. eigenvalues --   -0.55701  -0.55055  -0.54844  -0.54794  -0.54300
 Alpha  occ. eigenvalues --   -0.54166  -0.53980  -0.53699  -0.53555  -0.53438
 Alpha  occ. eigenvalues --   -0.53342  -0.53110  -0.52972  -0.52565  -0.52056
 Alpha  occ. eigenvalues --   -0.51972  -0.51767  -0.51532  -0.51462  -0.51340
 Alpha  occ. eigenvalues --   -0.51006  -0.50750  -0.50672  -0.50551  -0.50064
 Alpha  occ. eigenvalues --   -0.49906  -0.49767  -0.49407  -0.48890  -0.48832
 Alpha  occ. eigenvalues --   -0.48623  -0.48528  -0.48318  -0.47894  -0.47855
 Alpha  occ. eigenvalues --   -0.47683  -0.47283  -0.47180  -0.46866  -0.46502
 Alpha  occ. eigenvalues --   -0.46347  -0.46159  -0.45759  -0.45679  -0.45443
 Alpha  occ. eigenvalues --   -0.45289  -0.45135  -0.44873  -0.44782  -0.44625
 Alpha  occ. eigenvalues --   -0.44396  -0.44297  -0.44116  -0.43883  -0.43755
 Alpha  occ. eigenvalues --   -0.43576  -0.43420  -0.43034  -0.42532  -0.42492
 Alpha  occ. eigenvalues --   -0.42273  -0.42073  -0.41870  -0.41369  -0.41261
 Alpha  occ. eigenvalues --   -0.41169  -0.41000  -0.40642  -0.40601  -0.40333
 Alpha  occ. eigenvalues --   -0.40228  -0.39825  -0.39613  -0.39428  -0.39186
 Alpha  occ. eigenvalues --   -0.39022  -0.38839  -0.38279  -0.38260  -0.38076
 Alpha  occ. eigenvalues --   -0.37113  -0.36611  -0.36071  -0.35760  -0.34726
 Alpha  occ. eigenvalues --   -0.33708  -0.32841  -0.32636  -0.32119  -0.32032
 Alpha  occ. eigenvalues --   -0.31679  -0.31463  -0.31107  -0.30799  -0.30510
 Alpha  occ. eigenvalues --   -0.30368  -0.30171  -0.29333  -0.28139  -0.26688
 Alpha  occ. eigenvalues --   -0.25671  -0.23436  -0.22008
 Alpha virt. eigenvalues --   -0.06773  -0.05255  -0.01073   0.01440   0.01650
 Alpha virt. eigenvalues --    0.03156   0.03192   0.03399   0.04565   0.04606
 Alpha virt. eigenvalues --    0.05305   0.05451   0.05495   0.05709   0.05984

 Mulliken charges:
               1
     1  C   -0.031434
     2  C    0.094031
     3  C   -0.172357
     4  C   -0.167874
     5  S    0.243651
     6  C   -0.243966
     7  C   -0.170358
     8  C    0.093762
     9  H    0.191316
    10  C    0.219261
    11  C   -0.262497
    12  C   -0.226082
    13  C    0.118082
    14  C    0.174376
    15  N   -0.571880
    16  S    0.590182
    17  N   -0.588106
    18  C    0.197290
    19  C    0.080604
    20  C   -0.180131
    21  C   -0.192425
    22  C    0.298629
    23  C   -0.191545
    24  C   -0.195010
    25  H    0.155417
    26  H    0.159432
    27  N   -0.651048
    28  C    0.266060
    29  C   -0.180723
    30  C   -0.181241
    31  C    0.068058
    32  C   -0.199573
    33  C   -0.176065
    34  H    0.157868
    35  H    0.152641
    36  C    0.054420
    37  C   -0.207846
    38  C   -0.189500
    39  C    0.368616
    40  C   -0.247704
    41  C    0.276289
    42  O   -0.542488
    43  C   -0.217295
    44  H    0.153781
    45  H    0.172225
    46  H    0.158986
    47  H    0.157199
    48  O   -0.522763
    49  C   -0.229433
    50  H    0.182056
    51  H    0.166613
    52  H    0.165308
    53  H    0.150929
    54  H    0.155606
    55  H    0.158168
    56  H    0.156435
    57  C    0.262213
    58  C   -0.179087
    59  C   -0.178293
    60  C    0.090608
    61  C   -0.199805
    62  C   -0.176079
    63  H    0.155947
    64  H    0.150880
    65  C    0.010994
    66  C    0.328846
    67  C   -0.294655
    68  C    0.375433
    69  C   -0.203841
    70  C   -0.198257
    71  H    0.152190
    72  H    0.146120
    73  O   -0.523298
    74  C   -0.229554
    75  H    0.164906
    76  H    0.182100
    77  H    0.164988
    78  H    0.163702
    79  O   -0.522294
    80  C   -0.230012
    81  H    0.165446
    82  H    0.165825
    83  H    0.182883
    84  H    0.151468
    85  H    0.153588
    86  H    0.159037
    87  H    0.163934
    88  H    0.166696
    89  H    0.177422
    90  S    0.258380
    91  C   -0.247057
    92  C   -0.161224
    93  H    0.176950
    94  C    0.177194
    95  C   -0.186525
    96  C   -0.187153
    97  C    0.150474
    98  C   -0.184448
    99  C   -0.221754
   100  H    0.178663
   101  H    0.179456
   102  C   -0.172524
   103  C    0.036201
   104  C    0.223550
   105  N   -0.514243
   106  C    0.604227
   107  O   -0.474929
   108  O   -0.599065
   109  H    0.447223
   110  H    0.204829
   111  H    0.175933
   112  H    0.167787
   113  C   -0.444437
   114  H    0.162164
   115  H    0.157602
   116  H    0.159885
   117  C   -0.444400
   118  H    0.162025
   119  H    0.159820
   120  H    0.157401
 Sum of Mulliken charges =  -0.00000

 Dipole moment (field-independent basis, Debye):
    X=            -11.5922    Y=             -3.6863    Z=              7.1068  Tot=             14.0881
 Quadrupole moment (field-independent basis, Debye-Ang):
   XX=           -530.1656   YY=           -396.9391   ZZ=           -438.8278
   XY=             -4.2966   XZ=             30.7533   YZ=            -16.5344

 Normal termination of Gaussian 16 at Thu Jun  3 16:16:41 2021.
