 Gaussian 16, Revision B.01,
 Gaussian 16:  ES64L-G16RevB.01 20-Dec-2017

 ---------------------------------------
 #N TD(NStates=10) BHandHLYP/6-311G(d,p)
 ---------------------------------------

 ----
 Name
 ----
 Symbolic Z-matrix:
 Charge =  0 Multiplicity = 1

                         Standard orientation:
 ---------------------------------------------------------------------
 Center     Atomic      Atomic             Coordinates (Angstroms)
 Number     Number       Type             X           Y           Z
 ---------------------------------------------------------------------
      1          6           0        7.546561   -1.280310    2.683097
      2          6           0        8.592842   -0.800254    1.678459
      3          6           0        7.982348   -0.250768    0.559527
      4          6           0        6.560027   -0.312166    0.721275
      5         16           0        5.139569    0.126570   -0.154442
      6          6           0        4.110677   -0.497597    1.154165
      7          6           0        4.886064   -1.009111    2.184047
      8          6           0        6.267212   -0.903068    1.938473
      9          1           0        4.434723   -1.436566    3.066072
     10          6           0        2.664740   -0.421969    1.036834
     11          6           0        2.033004    0.180668   -0.038723
     12          6           0        0.630861    0.259925   -0.188264
     13          6           0       -0.271476   -0.248550    0.727084
     14          6           0        0.325305   -0.886039    1.870252
     15          7           0       -0.341718   -1.432283    2.889414
     16         16           0        0.764611   -2.009353    3.945696
     17          7           0        2.137532   -1.584801    3.156203
     18          6           0        1.773595   -0.971653    2.029089
     19          6           0       -1.727905   -0.129793    0.534743
     20          6           0       -2.627700   -1.127090    0.949407
     21          6           0       -3.989468   -1.015240    0.716343
     22          6           0       -4.520458    0.105162    0.056672
     23          6           0       -3.630876    1.111584   -0.353867
     24          6           0       -2.271351    0.992571   -0.114460
     25          1           0       -1.618590    1.799849   -0.426000
     26          1           0       -4.012512    1.990779   -0.857038
     27          7           0       -5.905965    0.218076   -0.183178
     28          6           0       -6.541714    1.490986   -0.162595
     29          6           0       -7.452277    1.849593   -1.164607
     30          6           0       -8.080003    3.087880   -1.142777
     31          6           0       -7.814461    4.022365   -0.129081
     32          6           0       -6.902809    3.649608    0.871239
     33          6           0       -6.281857    2.406948    0.863770
     34          1           0       -5.595470    2.138317    1.657746
     35          1           0       -6.698462    4.333679    1.687379
     36          6           0       -8.431479    5.372355   -0.123591
     37          6           0       -7.655440    6.504999    0.184186
     38          6           0       -8.175336    7.787662    0.179345
     39          6           0       -9.520917    7.991698   -0.146516
     40          6           0      -10.322163    6.890794   -0.449187
     41          6           0       -9.781010    5.603663   -0.436548
     42          8           0      -10.630860    4.567494   -0.772508
     43          6           0      -11.174607    3.854858    0.341958
     44          1           0      -11.768846    4.521873    0.977035
     45          1           0      -11.818644    3.079567   -0.072520
     46          1           0      -10.385781    3.390238    0.941552
     47          1           0      -11.366991    6.989955   -0.708897
     48          8           0       -9.950727    9.284025   -0.144623
     49          6           0      -11.303899    9.547345   -0.489284
     50          1           0      -11.419341   10.628514   -0.434744
     51          1           0      -11.531966    9.209206   -1.506079
     52          1           0      -11.997205    9.073730    0.214791
     53          1           0       -7.557214    8.648199    0.402949
     54          1           0       -6.602998    6.368378    0.405019
     55          1           0       -8.776499    3.344012   -1.929784
     56          1           0       -7.660802    1.152742   -1.967442
     57          6           0       -6.684190   -0.938764   -0.477466
     58          6           0       -7.924033   -1.137885    0.141914
     59          6           0       -8.692136   -2.255911   -0.153082
     60          6           0       -8.251760   -3.224345   -1.068286
     61          6           0       -7.002848   -3.017724   -1.673254
     62          6           0       -6.234035   -1.894297   -1.394612
     63          1           0       -5.276141   -1.759105   -1.882366
     64          1           0       -6.622935   -3.753594   -2.372990
     65          6           0       -9.074355   -4.404066   -1.438322
     66          6           0       -9.741533   -5.204812   -0.488005
     67          6           0      -10.490422   -6.320690   -0.879745
     68          6           0      -10.589114   -6.656541   -2.233187
     69          6           0       -9.938791   -5.878317   -3.191525
     70          6           0       -9.200749   -4.778553   -2.783035
     71          1           0       -8.714408   -4.166883   -3.534234
     72          1           0      -10.032331   -6.144342   -4.236502
     73          8           0      -11.299441   -7.720324   -2.704903
     74          6           0      -11.985477   -8.550716   -1.780708
     75          1           0      -12.745332   -7.991399   -1.222891
     76          1           0      -12.473802   -9.319260   -2.377619
     77          1           0      -11.294191   -9.027627   -1.076442
     78          1           0      -10.986088   -6.922385   -0.134488
     79          8           0       -9.602716   -4.840751    0.820595
     80          6           0      -10.183472   -5.647349    1.833286
     81          1           0      -11.275635   -5.680701    1.748293
     82          1           0       -9.784755   -6.667732    1.813423
     83          1           0       -9.912805   -5.176009    2.776807
     84          1           0       -9.646101   -2.386068    0.339831
     85          1           0       -8.285881   -0.405206    0.853395
     86          1           0       -4.654626   -1.802552    1.047713
     87          1           0       -2.255914   -1.998856    1.468874
     88          1           0        0.252500    0.727024   -1.089395
     89          1           0        2.635999    0.614377   -0.828430
     90         16           0        9.123789    0.305543   -0.605419
     91          6           0       10.469575   -0.212829    0.424075
     92          6           0        9.994005   -0.777274    1.599899
     93          1           0       10.653402   -1.174492    2.359953
     94          6           0       11.846087   -0.026495    0.002967
     95          6           0       12.911052   -0.188287    0.914530
     96          6           0       14.220700   -0.019765    0.513571
     97          6           0       14.553611    0.327482   -0.814183
     98          6           0       13.488229    0.495374   -1.724850
     99          6           0       12.178791    0.320031   -1.325168
    100          1           0       11.391855    0.441040   -2.060468
    101          1           0       13.683793    0.758683   -2.755101
    102          6           0       15.951965    0.484358   -1.128773
    103          6           0       16.598111    0.801101   -2.284978
    104          6           0       15.969472    1.065192   -3.530449
    105          7           0       15.544201    1.294906   -4.583914
    106          6           0       18.103574    0.878389   -2.242749
    107          8           0       18.738018    0.672509   -1.243038
    108          8           0       18.723307    1.195286   -3.399137
    109          1           0       18.087752    1.332222   -4.115879
    110          1           0       16.637229    0.323158   -0.300363
    111          1           0       15.018492   -0.148074    1.237166
    112          1           0       12.704703   -0.430789    1.949174
    113          6           0        7.637268   -2.804247    2.911604
    114          1           0        7.558605   -3.347206    1.967676
    115          1           0        8.589316   -3.066421    3.381452
    116          1           0        6.831512   -3.140233    3.569513
    117          6           0        7.660911   -0.524229    4.024198
    118          1           0        7.602613    0.555306    3.871714
    119          1           0        6.853024   -0.819794    4.698782
    120          1           0        8.611489   -0.752222    4.514437
 ---------------------------------------------------------------------

 SCF Done:  E(RBHandHLYP) =  -4215.94141812     A.U. after   16 cycles

 Excitation energies and oscillator strengths:

 Excited State   1:      Singlet-A      2.3246 eV  533.35 nm  f=2.0462  <S**2>=0.000
     265 -> 270       -0.10157
     267 -> 269       -0.32766
     268 -> 269        0.53492
     268 -> 270       -0.26104
 This state for optimization and/or second-order correction.
 Total Energy, E(TD-HF/TD-DFT) =  -4215.85598886
 Copying the excited state density for this state as the 1-particle RhoCI density.

 Excited State   2:      Singlet-A      2.8826 eV  430.11 nm  f=0.3439  <S**2>=0.000
     265 -> 269       -0.14885
     267 -> 269       -0.39951
     267 -> 270       -0.15298
     268 -> 270        0.49845
     268 -> 271       -0.12457

 Excited State   3:      Singlet-A      3.0883 eV  401.47 nm  f=0.0078  <S**2>=0.000
     267 -> 269       -0.37404
     267 -> 270        0.42133
     268 -> 269       -0.35351
     268 -> 270       -0.17580

 Excited State   4:      Singlet-A      3.5602 eV  348.25 nm  f=0.0880  <S**2>=0.000
     264 -> 269       -0.12140
     267 -> 269        0.16708
     267 -> 270        0.48609
     268 -> 269        0.26713
     268 -> 270        0.33855

 Excited State   5:      Singlet-A      3.7877 eV  327.33 nm  f=0.1052  <S**2>=0.000
     264 -> 269       -0.10354
     264 -> 270        0.12021
     265 -> 269        0.14840
     265 -> 270       -0.15314
     267 -> 269       -0.12559
     267 -> 270       -0.10579
     267 -> 271       -0.36389
     268 -> 270        0.10986
     268 -> 271        0.44861
     268 -> 272       -0.11556

 Excited State   6:      Singlet-A      3.8697 eV  320.40 nm  f=0.0623  <S**2>=0.000
     259 -> 270        0.13547
     264 -> 269       -0.33517
     265 -> 269        0.43033
     265 -> 270       -0.13116
     266 -> 269        0.17919
     267 -> 269       -0.10025
     267 -> 271        0.14490
     268 -> 269       -0.10208
     268 -> 271       -0.21681

 Excited State   7:      Singlet-A      4.0810 eV  303.81 nm  f=0.0567  <S**2>=0.000
     264 -> 269        0.12239
     265 -> 269       -0.14948
     266 -> 269        0.61254
     266 -> 270       -0.23954

 Excited State   8:      Singlet-A      4.1820 eV  296.47 nm  f=0.7694  <S**2>=0.000
     266 -> 269       -0.10878
     267 -> 272        0.14577
     267 -> 273        0.24205
     268 -> 272        0.41431
     268 -> 273        0.39692

 Excited State   9:      Singlet-A      4.2187 eV  293.89 nm  f=0.7126  <S**2>=0.000
     264 -> 269       -0.10209
     267 -> 271        0.17278
     267 -> 273        0.14419
     268 -> 272       -0.36313
     268 -> 273        0.39676
     268 -> 276        0.12589

 Excited State  10:      Singlet-A      4.2498 eV  291.74 nm  f=0.0781  <S**2>=0.000
     259 -> 269        0.28381
     263 -> 269        0.11368
     264 -> 269       -0.20662
     264 -> 270       -0.24836
     265 -> 270        0.38979
     266 -> 270        0.10136
     267 -> 269       -0.12889
     267 -> 270       -0.12686
     267 -> 271       -0.11673

 The electronic state is 1-A.
 Alpha  occ. eigenvalues --  -90.14126 -90.09077 -90.08413 -19.72584 -19.70928
 Alpha  occ. eigenvalues --  -19.70769 -19.70616 -19.68912 -19.66321 -14.84485
 Alpha  occ. eigenvalues --  -14.84453 -14.82677 -14.82101 -10.73937 -10.65893
 Alpha  occ. eigenvalues --  -10.65629 -10.65540 -10.65367 -10.65365 -10.64969
 Alpha  occ. eigenvalues --  -10.64762 -10.64671 -10.64589 -10.64500 -10.64351
 Alpha  occ. eigenvalues --  -10.64224 -10.64202 -10.64026 -10.63945 -10.63935
 Alpha  occ. eigenvalues --  -10.63605 -10.63574 -10.63039 -10.63001 -10.62983
 Alpha  occ. eigenvalues --  -10.62949 -10.62779 -10.62537 -10.62139 -10.62027
 Alpha  occ. eigenvalues --  -10.61729 -10.61477 -10.61240 -10.61230 -10.61189
 Alpha  occ. eigenvalues --  -10.60718 -10.60659 -10.60336 -10.60009 -10.59980
 Alpha  occ. eigenvalues --  -10.59652 -10.59416 -10.59317 -10.59308 -10.59175
 Alpha  occ. eigenvalues --  -10.59099 -10.58965 -10.58905 -10.58856 -10.58847
 Alpha  occ. eigenvalues --  -10.58838 -10.58730 -10.58578 -10.58562 -10.58524
 Alpha  occ. eigenvalues --  -10.58480 -10.58444 -10.58386 -10.58383 -10.58343
 Alpha  occ. eigenvalues --  -10.58328 -10.58238 -10.58065 -10.57570  -8.42492
 Alpha  occ. eigenvalues --   -8.37795  -8.37141  -6.28318  -6.27900  -6.27704
 Alpha  occ. eigenvalues --   -6.23566  -6.23307  -6.23012  -6.22919  -6.22657
 Alpha  occ. eigenvalues --   -6.22347  -1.25315  -1.21131  -1.20852  -1.20754
 Alpha  occ. eigenvalues --   -1.18947  -1.16614  -1.16053  -1.09599  -1.06055
 Alpha  occ. eigenvalues --   -1.05313  -1.02830  -1.02086  -1.00791  -0.99550
 Alpha  occ. eigenvalues --   -0.98964  -0.98632  -0.97595  -0.96923  -0.96487
 Alpha  occ. eigenvalues --   -0.95703  -0.94788  -0.91354  -0.90665  -0.89785
 Alpha  occ. eigenvalues --   -0.89038  -0.88770  -0.88099  -0.87751  -0.86900
 Alpha  occ. eigenvalues --   -0.86647  -0.86270  -0.85901  -0.85690  -0.85420
 Alpha  occ. eigenvalues --   -0.85052  -0.84511  -0.84446  -0.82744  -0.82332
 Alpha  occ. eigenvalues --   -0.81338  -0.80450  -0.80439  -0.78802  -0.78567
 Alpha  occ. eigenvalues --   -0.77670  -0.75543  -0.73625  -0.73281  -0.72955
 Alpha  occ. eigenvalues --   -0.72384  -0.72234  -0.71692  -0.71241  -0.71013
 Alpha  occ. eigenvalues --   -0.70729  -0.69987  -0.69596  -0.69075  -0.68887
 Alpha  occ. eigenvalues --   -0.68369  -0.67278  -0.67108  -0.66295  -0.65627
 Alpha  occ. eigenvalues --   -0.63941  -0.63813  -0.62906  -0.62500  -0.61947
 Alpha  occ. eigenvalues --   -0.61750  -0.61518  -0.61147  -0.60013  -0.59189
 Alpha  occ. eigenvalues --   -0.58907  -0.58582  -0.58348  -0.57614  -0.57320
 Alpha  occ. eigenvalues --   -0.57209  -0.56536  -0.56161  -0.55814  -0.55735
 Alpha  occ. eigenvalues --   -0.55585  -0.55117  -0.55081  -0.54921  -0.54323
 Alpha  occ. eigenvalues --   -0.54054  -0.53643  -0.53632  -0.53243  -0.53166
 Alpha  occ. eigenvalues --   -0.53067  -0.52866  -0.52599  -0.52459  -0.52234
 Alpha  occ. eigenvalues --   -0.52139  -0.51979  -0.51802  -0.51446  -0.51268
 Alpha  occ. eigenvalues --   -0.51125  -0.50713  -0.50437  -0.50068  -0.49536
 Alpha  occ. eigenvalues --   -0.49391  -0.49182  -0.49071  -0.48845  -0.48639
 Alpha  occ. eigenvalues --   -0.48481  -0.48216  -0.48049  -0.47523  -0.47436
 Alpha  occ. eigenvalues --   -0.47222  -0.46811  -0.46538  -0.46333  -0.45904
 Alpha  occ. eigenvalues --   -0.45788  -0.45640  -0.45503  -0.45256  -0.45081
 Alpha  occ. eigenvalues --   -0.44999  -0.44850  -0.44507  -0.44339  -0.44169
 Alpha  occ. eigenvalues --   -0.44131  -0.43492  -0.43334  -0.43124  -0.42895
 Alpha  occ. eigenvalues --   -0.42773  -0.42727  -0.42503  -0.42008  -0.41892
 Alpha  occ. eigenvalues --   -0.41747  -0.41561  -0.41505  -0.41227  -0.40896
 Alpha  occ. eigenvalues --   -0.40417  -0.40248  -0.40092  -0.40042  -0.39892
 Alpha  occ. eigenvalues --   -0.39875  -0.39762  -0.38854  -0.38412  -0.37892
 Alpha  occ. eigenvalues --   -0.37692  -0.37077  -0.36144  -0.35890  -0.34839
 Alpha  occ. eigenvalues --   -0.34279  -0.32606  -0.32002  -0.31541  -0.31401
 Alpha  occ. eigenvalues --   -0.31306  -0.30751  -0.30374  -0.30177  -0.29406
 Alpha  occ. eigenvalues --   -0.29321  -0.29062  -0.28790  -0.27580  -0.25959
 Alpha  occ. eigenvalues --   -0.24920  -0.22783  -0.21224
 Alpha virt. eigenvalues --   -0.08142  -0.06544  -0.02491   0.00465   0.00723
 Alpha virt. eigenvalues --    0.01212   0.01860   0.02027   0.03315   0.03427
 Alpha virt. eigenvalues --    0.03512   0.04156   0.04242   0.04449   0.04527

 Mulliken charges:
               1
     1  C   -0.309433
     2  C    0.030610
     3  C   -0.193555
     4  C   -0.189560
     5  S    0.307451
     6  C   -0.273194
     7  C    0.020537
     8  C    0.034104
     9  H    0.134990
    10  C    0.092974
    11  C   -0.106949
    12  C   -0.083657
    13  C    0.012684
    14  C    0.129850
    15  N   -0.521493
    16  S    0.577830
    17  N   -0.561798
    18  C    0.160259
    19  C   -0.027757
    20  C   -0.036054
    21  C   -0.114821
    22  C    0.184144
    23  C   -0.112631
    24  C   -0.077952
    25  H    0.100878
    26  H    0.123291
    27  N   -0.574166
    28  C    0.120569
    29  C   -0.086280
    30  C   -0.053320
    31  C   -0.097328
    32  C   -0.082185
    33  C   -0.083746
    34  H    0.116008
    35  H    0.102136
    36  C   -0.027159
    37  C   -0.066574
    38  C   -0.097443
    39  C    0.217324
    40  C   -0.106766
    41  C    0.140516
    42  O   -0.440001
    43  C   -0.085812
    44  H    0.095520
    45  H    0.115496
    46  H    0.116670
    47  H    0.111866
    48  O   -0.400158
    49  C   -0.111696
    50  H    0.130789
    51  H    0.112906
    52  H    0.108601
    53  H    0.109628
    54  H    0.104953
    55  H    0.116734
    56  H    0.116166
    57  C    0.115435
    58  C   -0.090273
    59  C   -0.033006
    60  C   -0.017773
    61  C   -0.078770
    62  C   -0.085025
    63  H    0.113354
    64  H    0.103065
    65  C   -0.104804
    66  C    0.226274
    67  C   -0.185860
    68  C    0.209551
    69  C   -0.103347
    70  C   -0.068276
    71  H    0.102905
    72  H    0.107332
    73  O   -0.400189
    74  C   -0.112487
    75  H    0.107877
    76  H    0.132315
    77  H    0.107924
    78  H    0.124134
    79  O   -0.413058
    80  C   -0.112190
    81  H    0.107143
    82  H    0.110128
    83  H    0.132959
    84  H    0.100519
    85  H    0.110049
    86  H    0.124198
    87  H    0.115158
    88  H    0.107869
    89  H    0.110614
    90  S    0.323181
    91  C   -0.293296
    92  C    0.015384
    93  H    0.103143
    94  C    0.038760
    95  C   -0.055221
    96  C   -0.056839
    97  C   -0.103119
    98  C   -0.045389
    99  C   -0.108660
   100  H    0.116499
   101  H    0.137493
   102  C    0.076878
   103  C   -0.222048
   104  C    0.021786
   105  N   -0.275144
   106  C    0.545025
   107  O   -0.367137
   108  O   -0.342159
   109  H    0.266566
   110  H    0.145802
   111  H    0.108829
   112  H    0.103075
   113  C   -0.203762
   114  H    0.122950
   115  H    0.106658
   116  H    0.113954
   117  C   -0.203646
   118  H    0.122741
   119  H    0.113926
   120  H    0.106027
 Sum of Mulliken charges =  -0.00000

 Dipole moment (field-independent basis, Debye):
    X=            -12.1930    Y=             -3.3784    Z=              6.0901  Tot=             14.0418
 Quadrupole moment (field-independent basis, Debye-Ang):
   XX=           -552.1583   YY=           -411.6898   ZZ=           -446.5096
   XY=             -2.8947   XZ=             28.7941   YZ=            -15.2341

 Normal termination of Gaussian 16 at Tue Jul 13 21:16:42 2021.
