 Gaussian 09, Revision D.01,
 Gaussian 09:  ES64L-G09RevD.01 24-Apr-2013

 ---------------------------------------
 #N TD(NStates=10) bhandhlyp/6-311G(d,p)
 ---------------------------------------

 ----
 Name
 ----
 Symbolic Z-matrix:
 Charge =  0 Multiplicity = 1

                         Standard orientation:
 ---------------------------------------------------------------------
 Center     Atomic      Atomic             Coordinates (Angstroms)
 Number     Number       Type             X           Y           Z
 ---------------------------------------------------------------------
      1          6           0       -0.012345   -2.980026   -0.407714
      2          6           0        1.181844   -2.045438   -0.222401
      3          6           0        0.752200   -0.744172    0.018210
      4          6           0       -0.678945   -0.712420    0.018957
      5         16           0       -1.952649    0.436098    0.234611
      6          6           0       -3.166989   -0.822632   -0.024199
      7          6           0       -4.590214   -0.504269    0.023730
      8          6           0       -5.077595    0.785619   -0.249982
      9          6           0       -6.432593    1.072378   -0.214590
     10          6           0       -7.369931    0.075781    0.102040
     11          7           0       -8.750787    0.360996    0.139017
     12          6           0       -9.214154    1.625471    0.604336
     13          6           0      -10.211451    2.315082   -0.096618
     14          1           0      -10.621524    1.883625   -1.001624
     15          6           0      -10.673568    3.542360    0.368124
     16          6           0      -10.140206    4.107439    1.525024
     17          6           0       -9.143025    3.426075    2.220855
     18          6           0       -8.687099    2.190479    1.772925
     19          1           0       -7.922238    1.658029    2.325222
     20          1           0       -8.725837    3.850586    3.127182
     21          1           0      -10.497770    5.066545    1.880804
     22          1           0      -11.446160    4.064263   -0.185371
     23          6           0       -9.697475   -0.610328   -0.296792
     24          6           0       -9.491944   -1.320371   -1.486903
     25          6           0      -10.419217   -2.268662   -1.906510
     26          6           0      -11.570826   -2.511165   -1.159718
     27          6           0      -11.782979   -1.798229    0.018937
     28          6           0      -10.852595   -0.860168    0.454890
     29          1           0      -11.016238   -0.314505    1.376158
     30          1           0      -12.672641   -1.980152    0.611433
     31          1           0      -12.294962   -3.245179   -1.493156
     32          1           0      -10.246749   -2.809387   -2.830429
     33          1           0       -8.605701   -1.124463   -2.078241
     34          6           0       -6.892132   -1.215381    0.383799
     35          6           0       -5.536667   -1.494682    0.344250
     36          1           0       -5.201094   -2.491617    0.604837
     37          1           0       -7.593124   -1.996191    0.650665
     38          1           0       -6.774959    2.072453   -0.448304
     39          1           0       -4.386677    1.572727   -0.531103
     40          6           0       -2.566632   -2.050285   -0.246603
     41          6           0       -1.159785   -1.989277   -0.220778
     42          1           0       -3.141310   -2.943633   -0.451656
     43         16           0        2.061887    0.356529    0.220661
     44          6           0        3.231933   -0.951498   -0.037351
     45          6           0        2.575347   -2.161542   -0.253040
     46          1           0        3.115099   -3.079791   -0.447226
     47          6           0        4.640379   -0.717411    0.023240
     48         16           0        5.733327   -2.034076    0.349049
     49          6           0        7.181931   -1.019341    0.262279
     50          6           0        6.783600    0.295128    0.016413
     51          6           0        5.371044    0.469850   -0.133365
     52          6           0        5.025084    1.801268   -0.517720
     53          6           0        6.119705    2.595367   -0.662240
     54         16           0        7.647231    1.775514   -0.315112
     55          6           0        6.069008    4.017068   -1.053967
     56          8           0        5.049654    4.622320   -1.285892
     57          8           0        7.303607    4.551046   -1.121623
     58          6           0        7.370376    5.942741   -1.483219
     59          1           0        6.944427    6.097414   -2.475575
     60          1           0        6.823812    6.548393   -0.759226
     61          1           0        8.428176    6.193112   -1.474066
     62          1           0        4.027359    2.172062   -0.700610
     63          6           0        8.432625   -1.681481    0.378047
     64          6           0        9.676085   -1.205887    0.713146
     65          6           0        9.888149    0.086727    1.261912
     66          7           0       10.053217    1.127542    1.738771
     67          6           0       10.879484   -2.097164    0.718285
     68          8           0       11.846749   -1.900768    1.397866
     69          8           0       10.816483   -3.192706   -0.094466
     70          1           0       10.132726   -3.071141   -0.762969
     71          1           0        8.379649   -2.754691    0.207370
     72          6           0       -0.027915   -3.601173   -1.821045
     73          1           0       -0.007959   -2.826361   -2.589895
     74          1           0        0.839207   -4.251575   -1.964513
     75          1           0       -0.928742   -4.203986   -1.963969
     76          6           0       -0.040437   -4.085156    0.669821
     77          1           0       -0.025893   -3.655350    1.673304
     78          1           0       -0.943515   -4.693214    0.569463
     79          1           0        0.824494   -4.745968    0.565774
 ---------------------------------------------------------------------

 SCF Done:  E(RBHandHLYP) =  -3581.62987857     A.U. after   16 cycles

 Excitation energies and oscillator strengths:

 Excited State   1:      Singlet-A      2.3302 eV  532.07 nm  f=1.8678  <S**2>=0.000
     191 -> 193       -0.22511
     192 -> 193        0.64833
 This state for optimization and/or second-order correction.
 Total Energy, E(TD-HF/TD-KS) =  -3581.54424480
 Copying the excited state density for this state as the 1-particle RhoCI density.

 Excited State   2:      Singlet-A      3.2393 eV  382.75 nm  f=0.0193  <S**2>=0.000
     190 -> 193        0.28853
     191 -> 193        0.58751
     192 -> 193        0.17663
     192 -> 194       -0.12251

 Excited State   3:      Singlet-A      3.4911 eV  355.15 nm  f=0.0617  <S**2>=0.000
     190 -> 195       -0.10957
     191 -> 193        0.10884
     191 -> 194       -0.27929
     192 -> 193        0.12891
     192 -> 194        0.58106
     192 -> 195       -0.13529

 Excited State   4:      Singlet-A      3.7604 eV  329.71 nm  f=0.3904  <S**2>=0.000
     190 -> 194       -0.13338
     191 -> 194       -0.20703
     191 -> 197       -0.10273
     192 -> 195        0.61085

 Excited State   5:      Singlet-A      3.8143 eV  325.05 nm  f=0.0078  <S**2>=0.000
     186 -> 193       -0.13142
     187 -> 193        0.11835
     190 -> 193        0.58333
     191 -> 193       -0.25521

 Excited State   6:      Singlet-A      4.2511 eV  291.65 nm  f=0.1491  <S**2>=0.000
     186 -> 193        0.12510
     187 -> 193        0.64875
     192 -> 194       -0.11058

 Excited State   7:      Singlet-A      4.3225 eV  286.84 nm  f=0.0323  <S**2>=0.000
     191 -> 195       -0.11252
     191 -> 196        0.33647
     192 -> 196        0.54191
     192 -> 201        0.10133

 Excited State   8:      Singlet-A      4.3476 eV  285.18 nm  f=0.1023  <S**2>=0.000
     191 -> 194       -0.34512
     191 -> 195        0.37246
     192 -> 194       -0.12649
     192 -> 197       -0.34235

 Excited State   9:      Singlet-A      4.5495 eV  272.52 nm  f=0.0449  <S**2>=0.000
     181 -> 193       -0.16105
     190 -> 194        0.27718
     191 -> 194        0.33226
     191 -> 195        0.17840
     192 -> 194        0.27562
     192 -> 195        0.14217
     192 -> 197       -0.29349

 Excited State  10:      Singlet-A      4.5768 eV  270.90 nm  f=0.0265  <S**2>=0.000
     181 -> 193       -0.16699
     182 -> 193       -0.30067
     184 -> 193       -0.18873
     185 -> 193       -0.22880
     186 -> 193        0.16772
     190 -> 194       -0.12434
     191 -> 197        0.15898
     191 -> 199       -0.17183
     192 -> 199        0.30765

 The electronic state is 1-A.
 Alpha  occ. eigenvalues --  -90.10430 -90.10140 -90.09056 -90.08878 -19.73173
 Alpha  occ. eigenvalues --  -19.72607 -19.67174 -19.66309 -14.83727 -14.79679
 Alpha  occ. eigenvalues --  -10.73924 -10.73537 -10.67722 -10.66045 -10.65965
 Alpha  occ. eigenvalues --  -10.65619 -10.65544 -10.65343 -10.64771 -10.64692
 Alpha  occ. eigenvalues --  -10.64606 -10.64454 -10.64418 -10.64127 -10.64070
 Alpha  occ. eigenvalues --  -10.63942 -10.63761 -10.63206 -10.62655 -10.62498
 Alpha  occ. eigenvalues --  -10.62186 -10.61635 -10.61474 -10.61349 -10.60865
 Alpha  occ. eigenvalues --  -10.60591 -10.60553 -10.59901 -10.59863 -10.59838
 Alpha  occ. eigenvalues --  -10.59804 -10.59741 -10.59725 -10.59594 -10.59573
 Alpha  occ. eigenvalues --  -10.59570 -10.59514 -10.59490 -10.59450 -10.59350
 Alpha  occ. eigenvalues --  -10.59259  -8.39173  -8.38844  -8.37771  -8.37559
 Alpha  occ. eigenvalues --   -6.24951  -6.24668  -6.24616  -6.24376  -6.24356
 Alpha  occ. eigenvalues --   -6.24051  -6.23545  -6.23343  -6.23282  -6.23061
 Alpha  occ. eigenvalues --   -6.22983  -6.22711  -1.26044  -1.24976  -1.16785
 Alpha  occ. eigenvalues --   -1.16509  -1.10711  -1.06582  -1.05675  -1.03505
 Alpha  occ. eigenvalues --   -1.01958  -0.99702  -0.99118  -0.98903  -0.97393
 Alpha  occ. eigenvalues --   -0.96508  -0.95244  -0.91667  -0.90252  -0.88437
 Alpha  occ. eigenvalues --   -0.88299  -0.87872  -0.87214  -0.86803  -0.86666
 Alpha  occ. eigenvalues --   -0.86356  -0.85263  -0.84957  -0.83619  -0.82962
 Alpha  occ. eigenvalues --   -0.81191  -0.80947  -0.77373  -0.74739  -0.73710
 Alpha  occ. eigenvalues --   -0.73640  -0.72713  -0.72118  -0.71408  -0.71232
 Alpha  occ. eigenvalues --   -0.70546  -0.70134  -0.67885  -0.67090  -0.65650
 Alpha  occ. eigenvalues --   -0.65551  -0.64658  -0.64585  -0.63701  -0.62891
 Alpha  occ. eigenvalues --   -0.62591  -0.61908  -0.59868  -0.58867  -0.58370
 Alpha  occ. eigenvalues --   -0.57471  -0.57320  -0.57244  -0.56851  -0.55957
 Alpha  occ. eigenvalues --   -0.55595  -0.55414  -0.54360  -0.53974  -0.53787
 Alpha  occ. eigenvalues --   -0.53659  -0.53055  -0.52916  -0.52632  -0.52305
 Alpha  occ. eigenvalues --   -0.51734  -0.51475  -0.51218  -0.50984  -0.50942
 Alpha  occ. eigenvalues --   -0.50499  -0.50451  -0.50342  -0.49607  -0.48632
 Alpha  occ. eigenvalues --   -0.48414  -0.48274  -0.48031  -0.47820  -0.47296
 Alpha  occ. eigenvalues --   -0.46835  -0.46240  -0.45584  -0.45427  -0.45118
 Alpha  occ. eigenvalues --   -0.44658  -0.44447  -0.44325  -0.44147  -0.44077
 Alpha  occ. eigenvalues --   -0.43988  -0.43888  -0.43348  -0.43077  -0.42884
 Alpha  occ. eigenvalues --   -0.42622  -0.41934  -0.41850  -0.41743  -0.41413
 Alpha  occ. eigenvalues --   -0.40948  -0.40318  -0.39480  -0.39005  -0.38752
 Alpha  occ. eigenvalues --   -0.38340  -0.37923  -0.36562  -0.35842  -0.34766
 Alpha  occ. eigenvalues --   -0.32764  -0.32598  -0.31813  -0.31502  -0.31445
 Alpha  occ. eigenvalues --   -0.31342  -0.30938  -0.30417  -0.30174  -0.27465
 Alpha  occ. eigenvalues --   -0.24395  -0.22046
 Alpha virt. eigenvalues --   -0.08807  -0.04380  -0.02773   0.00519   0.00772
 Alpha virt. eigenvalues --    0.01422   0.01814   0.02580   0.03034   0.03434
 Alpha virt. eigenvalues --    0.03522   0.04587   0.05170   0.05744   0.05859

 Mulliken charges:
               1
     1  C   -0.318968
     2  C    0.032900
     3  C   -0.183492
     4  C   -0.202264
     5  S    0.311152
     6  C   -0.258652
     7  C    0.000934
     8  C   -0.096123
     9  C   -0.104055
    10  C    0.176059
    11  N   -0.565021
    12  C    0.113825
    13  C   -0.091447
    14  H    0.117723
    15  C   -0.090913
    16  C   -0.103100
    17  C   -0.089995
    18  C   -0.091345
    19  H    0.117932
    20  H    0.106425
    21  H    0.103709
    22  H    0.105935
    23  C    0.112921
    24  C   -0.091640
    25  C   -0.090390
    26  C   -0.103516
    27  C   -0.090835
    28  C   -0.090374
    29  H    0.118054
    30  H    0.106053
    31  H    0.103321
    32  H    0.105364
    33  H    0.117317
    34  C   -0.102471
    35  C   -0.058943
    36  H    0.100825
    37  H    0.124229
    38  H    0.125672
    39  H    0.113168
    40  C   -0.009438
    41  C    0.049634
    42  H    0.103376
    43  S    0.350644
    44  C   -0.245351
    45  C   -0.012651
    46  H    0.115183
    47  C   -0.175746
    48  S    0.343439
    49  C   -0.342621
    50  C   -0.065045
    51  C    0.009995
    52  C    0.041922
    53  C   -0.379073
    54  S    0.394409
    55  C    0.527677
    56  O   -0.389517
    57  O   -0.386771
    58  C   -0.085312
    59  H    0.124398
    60  H    0.126677
    61  H    0.129917
    62  H    0.144723
    63  C    0.024447
    64  C   -0.189133
    65  C    0.083260
    66  N   -0.255244
    67  C    0.503441
    68  O   -0.333062
    69  O   -0.345049
    70  H    0.250931
    71  H    0.115541
    72  C   -0.203689
    73  H    0.124368
    74  H    0.109305
    75  H    0.111466
    76  C   -0.202197
    77  H    0.125039
    78  H    0.110595
    79  H    0.109539
 Sum of Mulliken charges =   0.00000

 Dipole moment (field-independent basis, Debye):
    X=            -13.4394    Y=             -2.9637    Z=             -4.4039  Tot=             14.4498
 Quadrupole moment (field-independent basis, Debye-Ang):
   XX=           -424.7201   YY=           -291.8956   ZZ=           -327.5296
   XY=              7.5372   XZ=            -46.2807   YZ=              5.4599

 Normal termination of Gaussian 09 at Thu Sep 16 20:21:00 2021.
