 Gaussian 09, Revision D.01,
 Gaussian 09:  ES64L-G09RevD.01 24-Apr-2013

 -----------------------------------
 #N TD(NStates=10) B3lYP/6-311G(d,p)
 -----------------------------------

 ----
 Name
 ----
 Symbolic Z-matrix:
 Charge =  0 Multiplicity = 1

                         Standard orientation:
 ---------------------------------------------------------------------
 Center     Atomic      Atomic             Coordinates (Angstroms)
 Number     Number       Type             X           Y           Z
 ---------------------------------------------------------------------
      1          6           0       -8.182487    7.128568   -1.105953
      2          8           0       -7.424227    6.343120   -0.197444
      3          6           0       -7.594299    4.990534   -0.210206
      4          6           0       -8.469618    4.302920   -1.054202
      5          6           0       -8.556066    2.912758   -0.982790
      6          6           0       -7.794556    2.189376   -0.065242
      7          7           0       -7.914267    0.769334    0.020459
      8          6           0       -6.774216   -0.050771    0.005910
      9          6           0       -6.768593   -1.297194    0.659475
     10          6           0       -5.644102   -2.104499    0.641031
     11          6           0       -4.467692   -1.716233   -0.024144
     12          6           0       -4.478614   -0.467096   -0.667243
     13          6           0       -5.599876    0.346473   -0.658344
     14          1           0       -5.576908    1.293575   -1.181667
     15          1           0       -3.602711   -0.138034   -1.215670
     16          6           0       -3.298009   -2.590422   -0.040351
     17         16           0       -1.679247   -1.948306   -0.237981
     18          6           0       -0.956467   -3.542922   -0.138653
     19          6           0       -1.937570   -4.494386    0.044753
     20          6           0       -3.244337   -3.961437    0.093471
     21          1           0       -4.130751   -4.571350    0.204916
     22          1           0       -1.716499   -5.548000    0.153267
     23          6           0        0.466090   -3.755461   -0.253515
     24         16           0        1.625967   -2.489340    0.090960
     25          6           0        2.982405   -3.542881   -0.263590
     26          6           0        2.526680   -4.802500   -0.602800
     27          6           0        1.123658   -4.920823   -0.599690
     28          1           0        0.598595   -5.824193   -0.878894
     29          1           0        3.192024   -5.607489   -0.884805
     30          6           0        4.348203   -3.095277   -0.180959
     31          6           0        5.489847   -3.875750   -0.107659
     32          6           0        6.681322   -3.134897   -0.049206
     33          6           0        6.495056   -1.761727   -0.065502
     34         16           0        4.773393   -1.400692   -0.180140
     35          6           0        7.470840   -0.700054   -0.004172
     36          6           0        7.110588    0.645469    0.018098
     37          6           0        8.027128    1.709041    0.075048
     38          6           0        9.404895    1.522915    0.116380
     39          6           0        9.839338    0.149149    0.096587
     40          6           0        8.893835   -0.951326    0.037490
     41          7           0        9.486622   -2.145534    0.026726
     42         16           0       11.103043   -1.887273    0.087207
     43          7           0       11.109838   -0.250030    0.128721
     44          6           0       10.416144    2.547404    0.177016
     45          6           0       10.318038    3.907627    0.206239
     46          6           0        9.086736    4.624554    0.179205
     47          7           0        8.074009    5.181561    0.156275
     48          6           0       11.527344    4.770239    0.270304
     49          8           0       12.682594    4.060852    0.295141
     50          1           0       13.395218    4.714294    0.336154
     51          8           0       11.502773    5.975544    0.297992
     52          1           0       11.429221    2.163911    0.203953
     53          1           0        7.621846    2.710797    0.088106
     54          1           0        6.059098    0.905844   -0.006957
     55          1           0        7.664200   -3.574760    0.016447
     56          1           0        5.457693   -4.956156   -0.073146
     57          1           0       -5.665615   -3.041239    1.185874
     58          1           0       -7.649607   -1.620623    1.198724
     59          6           0       -9.220243    0.201134    0.115168
     60          6           0      -10.139608    0.682707    1.047013
     61          6           0      -11.428031    0.154911    1.127792
     62          6           0      -11.808286   -0.887709    0.279495
     63          6           0      -10.887142   -1.380914   -0.653708
     64          6           0       -9.616649   -0.837159   -0.741459
     65          1           0       -8.917672   -1.217857   -1.476612
     66          1           0      -11.199291   -2.182431   -1.312207
     67          8           0      -13.035193   -1.482953    0.276218
     68          6           0      -14.013089   -1.020418    1.196578
     69          1           0      -13.687246   -1.158105    2.233800
     70          1           0      -14.254822    0.035405    1.029631
     71          1           0      -14.900545   -1.624742    1.016261
     72          1           0      -12.114575    0.557814    1.860159
     73          1           0       -9.849997    1.486332    1.713561
     74          6           0       -6.927688    2.890499    0.786592
     75          6           0       -6.820574    4.268759    0.708116
     76          1           0       -6.152769    4.816060    1.362263
     77          1           0       -6.334436    2.344841    1.510642
     78          1           0       -9.232054    2.385586   -1.645441
     79          1           0       -9.078993    4.830121   -1.775834
     80          1           0       -7.894368    8.161501   -0.918177
     81          1           0       -7.953658    6.873436   -2.146840
     82          1           0       -9.258874    7.016340   -0.932988
 ---------------------------------------------------------------------

 SCF Done:  E(RB3LYP) =  -3730.54296709     A.U. after   18 cycles

 Excitation energies and oscillator strengths:

 Excited State   1:      Singlet-A      1.3851 eV  895.13 nm  f=0.3300  <S**2>=0.000
     202 -> 203        0.70693
 This state for optimization and/or second-order correction.
 Total Energy, E(TD-HF/TD-KS) =  -3730.49206556
 Copying the excited state density for this state as the 1-particle RhoCI density.

 Excited State   2:      Singlet-A      1.9598 eV  632.65 nm  f=0.6904  <S**2>=0.000
     201 -> 203        0.69986

 Excited State   3:      Singlet-A      2.4802 eV  499.90 nm  f=0.5713  <S**2>=0.000
     200 -> 203       -0.23296
     202 -> 204        0.62755
     202 -> 205       -0.19769

 Excited State   4:      Singlet-A      2.5891 eV  478.88 nm  f=0.0344  <S**2>=0.000
     200 -> 203        0.52667
     201 -> 205       -0.14039
     202 -> 204        0.29674
     202 -> 205        0.32730

 Excited State   5:      Singlet-A      2.7297 eV  454.21 nm  f=0.2168  <S**2>=0.000
     200 -> 203       -0.37478
     202 -> 205        0.58527

 Excited State   6:      Singlet-A      2.9501 eV  420.28 nm  f=0.0024  <S**2>=0.000
     199 -> 203        0.70580

 Excited State   7:      Singlet-A      3.0105 eV  411.84 nm  f=0.3620  <S**2>=0.000
     201 -> 204        0.67953

 Excited State   8:      Singlet-A      3.1142 eV  398.13 nm  f=0.0075  <S**2>=0.000
     198 -> 203        0.57821
     200 -> 203        0.10530
     201 -> 205        0.36102

 Excited State   9:      Singlet-A      3.2708 eV  379.06 nm  f=0.3819  <S**2>=0.000
     198 -> 203       -0.30765
     201 -> 205        0.49305
     202 -> 206       -0.35617

 Excited State  10:      Singlet-A      3.3869 eV  366.07 nm  f=0.0588  <S**2>=0.000
     192 -> 203       -0.11908
     194 -> 203       -0.22643
     196 -> 203       -0.15010
     197 -> 203       -0.10902
     198 -> 203       -0.16001
     201 -> 205        0.21641
     202 -> 206        0.53496

 The electronic state is 1-A.
 Alpha  occ. eigenvalues --  -88.95137 -88.89102 -88.89021 -88.88152 -19.17129
 Alpha  occ. eigenvalues --  -19.15673 -19.15552 -19.11215 -14.36382 -14.36141
 Alpha  occ. eigenvalues --  -14.34805 -14.30909 -10.31379 -10.24826 -10.24600
 Alpha  occ. eigenvalues --  -10.24000 -10.23906 -10.23661 -10.23253 -10.23115
 Alpha  occ. eigenvalues --  -10.23114 -10.23037 -10.22840 -10.22707 -10.22661
 Alpha  occ. eigenvalues --  -10.22372 -10.22079 -10.22071 -10.21689 -10.21546
 Alpha  occ. eigenvalues --  -10.21473 -10.21448 -10.20887 -10.20720 -10.20324
 Alpha  occ. eigenvalues --  -10.19502 -10.19334 -10.19262 -10.19095 -10.19094
 Alpha  occ. eigenvalues --  -10.18690 -10.18243 -10.18216 -10.18183 -10.18177
 Alpha  occ. eigenvalues --  -10.18163 -10.18144 -10.18131 -10.18126 -10.18043
 Alpha  occ. eigenvalues --  -10.17794 -10.17682 -10.17585 -10.17551  -8.03396
 Alpha  occ. eigenvalues --   -7.97759  -7.97665  -7.96800  -5.99810  -5.99229
 Alpha  occ. eigenvalues --   -5.99001  -5.94067  -5.93972  -5.93693  -5.93598
 Alpha  occ. eigenvalues --   -5.93316  -5.93224  -5.93102  -5.92731  -5.92368
 Alpha  occ. eigenvalues --   -1.11729  -1.07534  -1.07423  -1.04149  -1.02698
 Alpha  occ. eigenvalues --   -0.97277  -0.91965  -0.91484  -0.91194  -0.90389
 Alpha  occ. eigenvalues --   -0.89100  -0.88089  -0.86643  -0.86570  -0.84786
 Alpha  occ. eigenvalues --   -0.84027  -0.80633  -0.79120  -0.78446  -0.77487
 Alpha  occ. eigenvalues --   -0.77324  -0.76504  -0.76239  -0.76115  -0.75607
 Alpha  occ. eigenvalues --   -0.75029  -0.74832  -0.74048  -0.73489  -0.71226
 Alpha  occ. eigenvalues --   -0.70935  -0.69360  -0.68160  -0.66131  -0.65188
 Alpha  occ. eigenvalues --   -0.64140  -0.63634  -0.63359  -0.62599  -0.62181
 Alpha  occ. eigenvalues --   -0.61783  -0.60635  -0.60137  -0.59732  -0.58333
 Alpha  occ. eigenvalues --   -0.56948  -0.56109  -0.55108  -0.54970  -0.54834
 Alpha  occ. eigenvalues --   -0.54529  -0.53944  -0.53388  -0.53087  -0.53077
 Alpha  occ. eigenvalues --   -0.52245  -0.51226  -0.50273  -0.50060  -0.49898
 Alpha  occ. eigenvalues --   -0.48990  -0.48706  -0.48127  -0.47921  -0.47797
 Alpha  occ. eigenvalues --   -0.47447  -0.46634  -0.46279  -0.46267  -0.45907
 Alpha  occ. eigenvalues --   -0.45705  -0.45299  -0.44357  -0.43846  -0.43728
 Alpha  occ. eigenvalues --   -0.43423  -0.43300  -0.43125  -0.42947  -0.42708
 Alpha  occ. eigenvalues --   -0.42514  -0.42411  -0.42013  -0.41548  -0.41358
 Alpha  occ. eigenvalues --   -0.41173  -0.40611  -0.40285  -0.39891  -0.39684
 Alpha  occ. eigenvalues --   -0.39524  -0.39321  -0.39109  -0.39033  -0.39004
 Alpha  occ. eigenvalues --   -0.38393  -0.38067  -0.37857  -0.37407  -0.37077
 Alpha  occ. eigenvalues --   -0.36898  -0.36730  -0.36399  -0.35991  -0.35752
 Alpha  occ. eigenvalues --   -0.35292  -0.34460  -0.34189  -0.34000  -0.33866
 Alpha  occ. eigenvalues --   -0.33716  -0.33545  -0.33242  -0.32968  -0.31819
 Alpha  occ. eigenvalues --   -0.31667  -0.30806  -0.29466  -0.28965  -0.28644
 Alpha  occ. eigenvalues --   -0.27631  -0.27249  -0.27101  -0.26972  -0.26471
 Alpha  occ. eigenvalues --   -0.26384  -0.26062  -0.25021  -0.23942  -0.22955
 Alpha  occ. eigenvalues --   -0.20345  -0.18205
 Alpha virt. eigenvalues --   -0.12487  -0.08036  -0.07575  -0.04696  -0.03192
 Alpha virt. eigenvalues --   -0.02369  -0.01855  -0.01424  -0.01307  -0.01041
 Alpha virt. eigenvalues --   -0.00832  -0.00659   0.00131   0.01503   0.01634

 Mulliken charges:
               1
     1  C   -0.132623
     2  O   -0.347720
     3  C    0.172282
     4  C   -0.131194
     5  C   -0.065470
     6  C    0.062158
     7  N   -0.497755
     8  C    0.190282
     9  C   -0.113136
    10  C   -0.047528
    11  C    0.008277
    12  C   -0.102329
    13  C   -0.112574
    14  H    0.116938
    15  H    0.101927
    16  C   -0.270481
    17  S    0.311420
    18  C   -0.244166
    19  C   -0.008424
    20  C   -0.048226
    21  H    0.097435
    22  H    0.096673
    23  C   -0.231256
    24  S    0.324834
    25  C   -0.248717
    26  C   -0.010638
    27  C   -0.021250
    28  H    0.100448
    29  H    0.101017
    30  C   -0.226914
    31  C   -0.013688
    32  C   -0.006649
    33  C   -0.292908
    34  S    0.332520
    35  C    0.124018
    36  C   -0.122103
    37  C   -0.037862
    38  C   -0.073339
    39  C    0.126004
    40  C    0.144074
    41  N   -0.505467
    42  S    0.563276
    43  N   -0.477918
    44  C    0.095987
    45  C   -0.191464
    46  C    0.067317
    47  N   -0.234603
    48  C    0.431568
    49  O   -0.336287
    50  H    0.259371
    51  O   -0.317584
    52  H    0.145505
    53  H    0.133610
    54  H    0.108748
    55  H    0.129659
    56  H    0.100255
    57  H    0.091501
    58  H    0.115719
    59  C    0.063144
    60  C   -0.065351
    61  C   -0.131516
    62  C    0.172211
    63  C   -0.086216
    64  C   -0.060648
    65  H    0.106921
    66  H    0.105087
    67  O   -0.348646
    68  C   -0.132547
    69  H    0.111185
    70  H    0.110533
    71  H    0.130572
    72  H    0.106578
    73  H    0.104714
    74  C   -0.060059
    75  C   -0.085545
    76  H    0.106535
    77  H    0.107375
    78  H    0.103896
    79  H    0.106439
    80  H    0.131285
    81  H    0.111581
    82  H    0.109921
 Sum of Mulliken charges =   0.00000

 Dipole moment (field-independent basis, Debye):
    X=             -7.4174    Y=             -5.8239    Z=             -0.2364  Tot=              9.4335
 Quadrupole moment (field-independent basis, Debye-Ang):
   XX=           -249.5060   YY=           -338.0821   ZZ=           -338.9673
   XY=            -70.4256   XZ=             -7.2972   YZ=             -7.3108

 Normal termination of Gaussian 09 at Mon May 31 06:59:28 2021.
