 Gaussian 16, Revision C.01,
 Gaussian 16:  ES64L-G16RevC.01  3-Jul-2019

 ---------------------------------------
 #N TD(NStates=10) BHandHLYP/6-311G(d,p)
 ---------------------------------------

 ---------
 C25H20ON4
 ---------
 Symbolic Z-matrix:
 Charge =  0 Multiplicity = 1

                         Standard orientation:
 ---------------------------------------------------------------------
 Center     Atomic      Atomic             Coordinates (Angstroms)
 Number     Number       Type             X           Y           Z
 ---------------------------------------------------------------------
      1          6           0       -4.631031    5.361136   -2.411965
      2          6           0        0.952221    5.740697   -1.473753
      3          6           0       -0.146433   -0.445370    0.147030
      4          6           0       -0.947089    0.692174   -0.068337
      5          6           0       -2.359020    0.429567   -0.016011
      6          6           0       -2.679179   -0.908980    0.260187
      7          1           0       -5.288656   -4.617098    1.156981
      8          1           0        0.860507    7.799804   -0.847875
      9          6           0       -2.784972    2.629555   -0.531279
     10          6           0       -1.353809    2.914069   -0.481952
     11          6           0        7.824722   -5.776095   -3.623969
     12          6           0        8.820585    3.045063    3.915736
     13          6           0       -3.958167   -1.574327    0.389483
     14          6           0       -5.176556   -0.890741    0.151509
     15          1           0       -7.291372   -0.958003    0.072563
     16          6           0       -4.043530   -2.938276    0.753936
     17          1           0       -5.141231    0.149716   -0.135119
     18          6           0        1.297547   -0.598599    0.150351
     19          6           0        2.162457    0.505724    0.306889
     20          6           0        3.536785    0.351629    0.317724
     21          6           0        4.132468   -0.918346    0.171651
     22          6           0        3.273532   -2.027315    0.018133
     23          6           0        1.901525   -1.865332    0.006245
     24          1           0        1.739779    1.494807    0.407860
     25          1           0        4.164243    1.225272    0.435011
     26          6           0       -5.262430   -3.570822    0.872697
     27          1           0        3.691571   -3.018690   -0.094374
     28          1           0        1.284605   -2.747058   -0.127164
     29          6           0        0.404280    6.818861   -0.779223
     30          6           0       -0.731085    6.628444    0.007254
     31          6           0       -6.479154   -2.889616    0.638832
     32          1           0       -6.588008    6.143747   -1.971527
     33          6           0       -6.394931   -1.527437    0.271705
     34          6           0        6.371743   -0.113043    0.805884
     35          6           0        7.424824    0.474129    0.091519
     36          6           0        8.271763    1.383955    0.703834
     37          6           0        8.078764    1.742664    2.045104
     38          6           0        7.027087    1.165339    2.763738
     39          6           0        6.191132    0.237049    2.144271
     40          1           0        7.579146    0.209308   -0.947690
     41          1           0        9.088486    1.839686    0.156997
     42          6           0       -7.695069   -3.647394    0.790412
     43          1           0        6.857048    1.415032    3.802069
     44          1           0        5.387599   -0.216572    2.712302
     45          6           0        6.141089   -2.190242   -0.470033
     46          6           0        7.052582   -2.993299    0.228903
     47          6           0        7.680930   -4.057226   -0.398404
     48          6           0        7.402670   -4.356297   -1.739342
     49          6           0        6.491011   -3.562645   -2.442798
     50          6           0        5.877831   -2.482852   -1.808608
     51          1           0        7.269510   -2.776009    1.267963
     52          1           0        8.387370   -4.680452    0.136639
     53          1           0        6.261671   -3.761504   -3.480711
     54          1           0        5.184685   -1.863495   -2.365415
     55          6           0       -9.015144   -3.303944    0.695865
     56          1           0       -2.717927    4.412890   -2.611118
     57          1           0       -5.148781    3.074038    0.663746
     58          1           0       -7.506319   -4.683242    1.059202
     59          1           0       -4.487420    5.987204   -3.285059
     60          1           0       -6.913955    4.681992    0.008889
     61          6           0       -1.326181    5.372509    0.088090
     62          1           0        0.798017    3.639362   -1.911234
     63          1           0        1.835597    5.880502   -2.086415
     64          6           0       -0.783844    4.283523   -0.607833
     65          6           0      -10.121801   -4.275787    0.951255
     66          1           0       -1.154853    7.458551    0.560742
     67          1           0       -2.205096    5.237183    0.706238
     68         16           0       -1.186602   -1.801887    0.445836
     69          7           0       -3.247730    1.425711   -0.272546
     70          7           0       -0.483638    1.946718   -0.288249
     71          7           0        5.519459   -1.074533    0.175518
     72          6           0        0.368612    4.480809   -1.381344
     73          6           0       -3.805550    3.643200   -0.914214
     74          6           0       -3.629759    4.472905   -2.029876
     75          6           0       -5.004933    3.721022   -0.192913
     76          6           0       -5.813238    5.444955   -1.677486
     77          6           0       -5.996733    4.623060   -0.565829
     78          1           0        8.446316   -6.647642   -3.819049
     79          1           0        6.774233   -6.034687   -3.789716
     80          1           0        8.113716   -4.965439   -4.300067
     81          1           0        9.616962    3.763855    4.097804
     82          1           0        7.852263    3.522568    4.095030
     83          1           0        8.939376    2.192469    4.591564
     84          8           0        8.064222   -5.426213   -2.261112
     85          8           0        8.959743    2.649126    2.551526
     86          1           0       -3.143257   -3.508059    0.950856
     87          8           0      -11.240290   -3.925952    1.237937
     88          8           0       -9.834414   -5.595084    0.867360
     89          6           0       -9.478038   -1.979660    0.450833
     90          7           0       -9.870299   -0.911276    0.245382
     91          1           0       -8.989770   -5.751540    0.426869
 ---------------------------------------------------------------------

 SCF Done:  E(RBHandHLYP) =  -2766.76244272     A.U. after   16 cycles

 Excitation energies and oscillator strengths:

 Excited State   1:      Singlet-A      2.2375 eV  554.11 nm  f=0.9848  <S**2>=0.000
     198 -> 200       -0.16525
     199 -> 200        0.66278
     199 -> 201       -0.14753
 This state for optimization and/or second-order correction.
 Total Energy, E(TD-HF/TD-DFT) =  -2766.68021458
 Copying the excited state density for this state as the 1-particle RhoCI density.

 Excited State   2:      Singlet-A      3.1938 eV  388.20 nm  f=0.4911  <S**2>=0.000
     198 -> 201       -0.24908
     199 -> 200        0.15593
     199 -> 201        0.61829

 Excited State   3:      Singlet-A      3.3018 eV  375.50 nm  f=0.2552  <S**2>=0.000
     195 -> 200       -0.11955
     197 -> 200        0.17994
     198 -> 200        0.62725
     199 -> 200        0.13216
     199 -> 201       -0.11125

 Excited State   4:      Singlet-A      3.7132 eV  333.90 nm  f=0.1252  <S**2>=0.000
     186 -> 200       -0.23108
     186 -> 201        0.17221
     187 -> 200       -0.25950
     187 -> 201        0.14925
     190 -> 200       -0.10120
     197 -> 200        0.45606
     197 -> 201       -0.15730

 Excited State   5:      Singlet-A      3.7462 eV  330.96 nm  f=0.0882  <S**2>=0.000
     186 -> 200        0.28444
     186 -> 201       -0.17964
     187 -> 200        0.24940
     187 -> 201       -0.17166
     190 -> 200        0.13369
     197 -> 200        0.40785
     197 -> 201       -0.13618
     198 -> 200       -0.16216

 Excited State   6:      Singlet-A      4.0718 eV  304.50 nm  f=0.6335  <S**2>=0.000
     198 -> 201        0.10277
     199 -> 202        0.53810
     199 -> 203       -0.30701
     199 -> 204        0.12924

 Excited State   7:      Singlet-A      4.2015 eV  295.10 nm  f=0.0264  <S**2>=0.000
     192 -> 200        0.18370
     198 -> 204        0.19548
     199 -> 203        0.28563
     199 -> 204        0.51674
     199 -> 210        0.10057
     199 -> 211       -0.11272

 Excited State   8:      Singlet-A      4.2861 eV  289.27 nm  f=0.1751  <S**2>=0.000
     188 -> 200       -0.16220
     193 -> 200        0.11547
     195 -> 200       -0.32986
     195 -> 201       -0.11945
     198 -> 201        0.45297
     199 -> 201        0.22249
     199 -> 202       -0.12859

 Excited State   9:      Singlet-A      4.4096 eV  281.17 nm  f=0.0010  <S**2>=0.000
     188 -> 200        0.46733
     188 -> 201        0.17658
     195 -> 200        0.17618
     198 -> 201        0.28141
     198 -> 206        0.13935
     199 -> 206       -0.20309

 Excited State  10:      Singlet-A      4.4343 eV  279.60 nm  f=0.0350  <S**2>=0.000
     188 -> 200       -0.24897
     193 -> 200       -0.16088
     195 -> 200        0.46118
     198 -> 200        0.10984
     198 -> 201        0.27330
     199 -> 203        0.10652
     199 -> 206        0.12684

 The electronic state is 1-A.
 Alpha  occ. eigenvalues --  -90.09414 -19.72770 -19.71122 -19.71059 -19.65982
 Alpha  occ. eigenvalues --  -14.83356 -14.82451 -14.82258 -14.79706 -10.73489
 Alpha  occ. eigenvalues --  -10.66295 -10.65932 -10.65889 -10.65871 -10.65198
 Alpha  occ. eigenvalues --  -10.64956 -10.64628 -10.64602 -10.64584 -10.64557
 Alpha  occ. eigenvalues --  -10.64482 -10.63984 -10.63721 -10.63227 -10.63203
 Alpha  occ. eigenvalues --  -10.63144 -10.62357 -10.62001 -10.61486 -10.61019
 Alpha  occ. eigenvalues --  -10.60940 -10.60842 -10.60601 -10.60542 -10.60136
 Alpha  occ. eigenvalues --  -10.60021 -10.59959 -10.59895 -10.59851 -10.59845
 Alpha  occ. eigenvalues --  -10.59802 -10.59776 -10.59739 -10.59709 -10.59665
 Alpha  occ. eigenvalues --  -10.59636 -10.59629 -10.59598 -10.59579 -10.59577
 Alpha  occ. eigenvalues --  -10.59471 -10.59412 -10.59395 -10.59265 -10.59205
 Alpha  occ. eigenvalues --  -10.59054 -10.58771  -8.38166  -6.23914  -6.23644
 Alpha  occ. eigenvalues --   -6.23431  -1.25150  -1.21135  -1.21076  -1.16074
 Alpha  occ. eigenvalues --   -1.12982  -1.10253  -1.05621  -1.03661  -1.02534
 Alpha  occ. eigenvalues --   -1.00515  -0.99157  -0.98749  -0.98585  -0.98401
 Alpha  occ. eigenvalues --   -0.96732  -0.95639  -0.91260  -0.91099  -0.88469
 Alpha  occ. eigenvalues --   -0.88441  -0.87923  -0.87774  -0.87413  -0.87088
 Alpha  occ. eigenvalues --   -0.86785  -0.86596  -0.86564  -0.85334  -0.84457
 Alpha  occ. eigenvalues --   -0.82760  -0.81375  -0.79582  -0.78484  -0.77565
 Alpha  occ. eigenvalues --   -0.75171  -0.73359  -0.72846  -0.72230  -0.72022
 Alpha  occ. eigenvalues --   -0.71872  -0.71491  -0.71129  -0.70668  -0.70163
 Alpha  occ. eigenvalues --   -0.69595  -0.69320  -0.67794  -0.66920  -0.66317
 Alpha  occ. eigenvalues --   -0.65639  -0.63522  -0.62974  -0.62884  -0.61946
 Alpha  occ. eigenvalues --   -0.61545  -0.61064  -0.60705  -0.60074  -0.58149
 Alpha  occ. eigenvalues --   -0.57693  -0.57593  -0.57042  -0.56777  -0.55574
 Alpha  occ. eigenvalues --   -0.55505  -0.55178  -0.54832  -0.54484  -0.54066
 Alpha  occ. eigenvalues --   -0.53696  -0.53498  -0.53422  -0.53171  -0.53144
 Alpha  occ. eigenvalues --   -0.52606  -0.52143  -0.51635  -0.51407  -0.51308
 Alpha  occ. eigenvalues --   -0.51002  -0.50836  -0.50645  -0.50460  -0.50314
 Alpha  occ. eigenvalues --   -0.50181  -0.50091  -0.49850  -0.49785  -0.48661
 Alpha  occ. eigenvalues --   -0.48054  -0.47812  -0.46897  -0.46836  -0.46297
 Alpha  occ. eigenvalues --   -0.46085  -0.45568  -0.45428  -0.45017  -0.44816
 Alpha  occ. eigenvalues --   -0.44713  -0.44379  -0.44161  -0.44062  -0.43657
 Alpha  occ. eigenvalues --   -0.43532  -0.43069  -0.42663  -0.42310  -0.41970
 Alpha  occ. eigenvalues --   -0.41827  -0.41602  -0.41170  -0.40702  -0.40504
 Alpha  occ. eigenvalues --   -0.40440  -0.40052  -0.40011  -0.39305  -0.38950
 Alpha  occ. eigenvalues --   -0.38522  -0.37478  -0.36186  -0.35615  -0.32845
 Alpha  occ. eigenvalues --   -0.32785  -0.31893  -0.31546  -0.31428  -0.31055
 Alpha  occ. eigenvalues --   -0.30705  -0.30462  -0.30251  -0.29963  -0.29176
 Alpha  occ. eigenvalues --   -0.28295  -0.27513  -0.24865  -0.21475
 Alpha virt. eigenvalues --   -0.08313  -0.05091  -0.00915   0.00361   0.00801
 Alpha virt. eigenvalues --    0.01953   0.02144   0.02824   0.02955   0.03218
 Alpha virt. eigenvalues --    0.03423   0.03635   0.03990   0.04667   0.05770

 Mulliken charges:
               1
     1  C   -0.092711
     2  C   -0.095830
     3  C   -0.292424
     4  C    0.226872
     5  C    0.257313
     6  C   -0.335692
     7  H    0.094649
     8  H    0.106091
     9  C    0.181221
    10  C    0.156944
    11  C   -0.110330
    12  C   -0.110514
    13  C    0.026335
    14  C   -0.041840
    15  H    0.137447
    16  C   -0.115974
    17  H    0.151554
    18  C   -0.007986
    19  C   -0.029204
    20  C   -0.135141
    21  C    0.237012
    22  C   -0.132265
    23  C   -0.106171
    24  H    0.133237
    25  H    0.126995
    26  C   -0.075733
    27  H    0.125553
    28  H    0.104136
    29  C   -0.095853
    30  C   -0.093388
    31  C   -0.098886
    32  H    0.108397
    33  C   -0.051751
    34  C    0.065513
    35  C   -0.064763
    36  C   -0.093968
    37  C    0.203479
    38  C   -0.134119
    39  C   -0.061094
    40  H    0.111048
    41  H    0.115033
    42  C    0.042912
    43  H    0.116086
    44  H    0.113883
    45  C    0.064173
    46  C   -0.064797
    47  C   -0.093701
    48  C    0.203291
    49  C   -0.134840
    50  C   -0.063238
    51  H    0.111485
    52  H    0.115450
    53  H    0.115752
    54  H    0.114146
    55  C   -0.196712
    56  H    0.114228
    57  H    0.109553
    58  H    0.094939
    59  H    0.106104
    60  H    0.111340
    61  C   -0.046476
    62  H    0.108130
    63  H    0.105668
    64  C   -0.145854
    65  C    0.510178
    66  H    0.106207
    67  H    0.115086
    68  S    0.383815
    69  N   -0.399233
    70  N   -0.379385
    71  N   -0.562372
    72  C   -0.049910
    73  C   -0.146272
    74  C   -0.044639
    75  C   -0.048925
    76  C   -0.093725
    77  C   -0.094084
    78  H    0.132729
    79  H    0.110606
    80  H    0.111295
    81  H    0.132422
    82  H    0.111367
    83  H    0.111228
    84  O   -0.402774
    85  O   -0.402932
    86  H    0.106363
    87  O   -0.341823
    88  O   -0.337162
    89  C    0.095469
    90  N   -0.269069
    91  H    0.250829
 Sum of Mulliken charges =  -0.00000

 Dipole moment (field-independent basis, Debye):
    X=             13.4468    Y=              1.1238    Z=             -1.5668  Tot=             13.5843
 Quadrupole moment (field-independent basis, Debye-Ang):
   XX=           -466.9259   YY=           -287.2679   ZZ=           -310.7776
   XY=            -25.7111   XZ=             15.7213   YZ=             15.8372

 Normal termination of Gaussian 16 at Tue Jul 27 19:50:40 2021.
