 Gaussian 16, Revision B.01,
 Gaussian 16:  ES64L-G16RevB.01 20-Dec-2017

 ---------------------------------------
 #N TD(NStates=10) CAM-B3lYP/6-311G(d,p)
 ---------------------------------------

 ----
 Name
 ----
 Symbolic Z-matrix:
 Charge =  0 Multiplicity = 1

                         Standard orientation:
 ---------------------------------------------------------------------
 Center     Atomic      Atomic             Coordinates (Angstroms)
 Number     Number       Type             X           Y           Z
 ---------------------------------------------------------------------
      1          6           0       -8.182487    7.128568   -1.105953
      2          8           0       -7.424227    6.343120   -0.197444
      3          6           0       -7.594299    4.990534   -0.210206
      4          6           0       -8.469618    4.302920   -1.054202
      5          6           0       -8.556066    2.912758   -0.982790
      6          6           0       -7.794556    2.189376   -0.065242
      7          7           0       -7.914267    0.769334    0.020459
      8          6           0       -6.774216   -0.050771    0.005910
      9          6           0       -6.768593   -1.297194    0.659475
     10          6           0       -5.644102   -2.104499    0.641031
     11          6           0       -4.467692   -1.716233   -0.024144
     12          6           0       -4.478614   -0.467096   -0.667243
     13          6           0       -5.599876    0.346473   -0.658344
     14          1           0       -5.576908    1.293575   -1.181667
     15          1           0       -3.602711   -0.138034   -1.215670
     16          6           0       -3.298009   -2.590422   -0.040351
     17         16           0       -1.679247   -1.948306   -0.237981
     18          6           0       -0.956467   -3.542922   -0.138653
     19          6           0       -1.937570   -4.494386    0.044753
     20          6           0       -3.244337   -3.961437    0.093471
     21          1           0       -4.130751   -4.571350    0.204916
     22          1           0       -1.716499   -5.548000    0.153267
     23          6           0        0.466090   -3.755461   -0.253515
     24         16           0        1.625967   -2.489340    0.090960
     25          6           0        2.982405   -3.542881   -0.263590
     26          6           0        2.526680   -4.802500   -0.602800
     27          6           0        1.123658   -4.920823   -0.599690
     28          1           0        0.598595   -5.824193   -0.878894
     29          1           0        3.192024   -5.607489   -0.884805
     30          6           0        4.348203   -3.095277   -0.180959
     31          6           0        5.489847   -3.875750   -0.107659
     32          6           0        6.681322   -3.134897   -0.049206
     33          6           0        6.495056   -1.761727   -0.065502
     34         16           0        4.773393   -1.400692   -0.180140
     35          6           0        7.470840   -0.700054   -0.004172
     36          6           0        7.110588    0.645469    0.018098
     37          6           0        8.027128    1.709041    0.075048
     38          6           0        9.404895    1.522915    0.116380
     39          6           0        9.839338    0.149149    0.096587
     40          6           0        8.893835   -0.951326    0.037490
     41          7           0        9.486622   -2.145534    0.026726
     42         16           0       11.103043   -1.887273    0.087207
     43          7           0       11.109838   -0.250030    0.128721
     44          6           0       10.416144    2.547404    0.177016
     45          6           0       10.318038    3.907627    0.206239
     46          6           0        9.086736    4.624554    0.179205
     47          7           0        8.074009    5.181561    0.156275
     48          6           0       11.527344    4.770239    0.270304
     49          8           0       12.682594    4.060852    0.295141
     50          1           0       13.395218    4.714294    0.336154
     51          8           0       11.502773    5.975544    0.297992
     52          1           0       11.429221    2.163911    0.203953
     53          1           0        7.621846    2.710797    0.088106
     54          1           0        6.059098    0.905844   -0.006957
     55          1           0        7.664200   -3.574760    0.016447
     56          1           0        5.457693   -4.956156   -0.073146
     57          1           0       -5.665615   -3.041239    1.185874
     58          1           0       -7.649607   -1.620623    1.198724
     59          6           0       -9.220243    0.201134    0.115168
     60          6           0      -10.139608    0.682707    1.047013
     61          6           0      -11.428031    0.154911    1.127792
     62          6           0      -11.808286   -0.887709    0.279495
     63          6           0      -10.887142   -1.380914   -0.653708
     64          6           0       -9.616649   -0.837159   -0.741459
     65          1           0       -8.917672   -1.217857   -1.476612
     66          1           0      -11.199291   -2.182431   -1.312207
     67          8           0      -13.035193   -1.482953    0.276218
     68          6           0      -14.013089   -1.020418    1.196578
     69          1           0      -13.687246   -1.158105    2.233800
     70          1           0      -14.254822    0.035405    1.029631
     71          1           0      -14.900545   -1.624742    1.016261
     72          1           0      -12.114575    0.557814    1.860159
     73          1           0       -9.849997    1.486332    1.713561
     74          6           0       -6.927688    2.890499    0.786592
     75          6           0       -6.820574    4.268759    0.708116
     76          1           0       -6.152769    4.816060    1.362263
     77          1           0       -6.334436    2.344841    1.510642
     78          1           0       -9.232054    2.385586   -1.645441
     79          1           0       -9.078993    4.830121   -1.775834
     80          1           0       -7.894368    8.161501   -0.918177
     81          1           0       -7.953658    6.873436   -2.146840
     82          1           0       -9.258874    7.016340   -0.932988
 ---------------------------------------------------------------------

 SCF Done:  E(RCAM-B3LYP) =  -3729.40099077     A.U. after   17 cycles

 Excitation energies and oscillator strengths:

 Excited State   1:      Singlet-A      2.2999 eV  539.10 nm  f=1.3175  <S**2>=0.000
     200 -> 203       -0.18528
     201 -> 203        0.46653
     202 -> 203        0.44998
     202 -> 204        0.13621
 This state for optimization and/or second-order correction.
 Total Energy, E(TD-HF/TD-DFT) =  -3729.31647275
 Copying the excited state density for this state as the 1-particle RhoCI density.

 Excited State   2:      Singlet-A      3.0063 eV  412.41 nm  f=0.2186  <S**2>=0.000
     198 -> 203        0.10735
     200 -> 203        0.29888
     201 -> 203       -0.37451
     202 -> 203        0.47289
     202 -> 204        0.14929

 Excited State   3:      Singlet-A      3.2787 eV  378.15 nm  f=0.8520  <S**2>=0.000
     201 -> 204        0.30951
     202 -> 203       -0.24862
     202 -> 204        0.50286
     202 -> 205       -0.11656
     202 -> 206       -0.17192

 Excited State   4:      Singlet-A      3.6284 eV  341.70 nm  f=0.0240  <S**2>=0.000
     192 -> 203        0.12113
     195 -> 203        0.10655
     198 -> 203        0.32171
     200 -> 203        0.44600
     201 -> 203        0.31707
     202 -> 204       -0.14532
     202 -> 206        0.12952

 Excited State   5:      Singlet-A      3.8619 eV  321.04 nm  f=0.4009  <S**2>=0.000
     198 -> 205       -0.11002
     200 -> 203       -0.12090
     200 -> 204       -0.19995
     200 -> 205       -0.16496
     201 -> 204        0.41096
     201 -> 205        0.22295
     202 -> 205        0.26806
     202 -> 206        0.26374

 Excited State   6:      Singlet-A      4.0038 eV  309.67 nm  f=0.0242  <S**2>=0.000
     190 -> 203       -0.14987
     191 -> 203        0.12988
     194 -> 203       -0.11888
     200 -> 205       -0.22522
     201 -> 204       -0.24775
     201 -> 205        0.40212
     202 -> 205        0.20593
     202 -> 206       -0.20745
     202 -> 208        0.10131

 Excited State   7:      Singlet-A      4.0732 eV  304.39 nm  f=0.0298  <S**2>=0.000
     201 -> 207       -0.23479
     202 -> 207        0.61899

 Excited State   8:      Singlet-A      4.2118 eV  294.37 nm  f=0.0258  <S**2>=0.000
     190 -> 203        0.18449
     191 -> 203       -0.36077
     193 -> 203       -0.13093
     194 -> 203        0.38805
     196 -> 203       -0.13902
     200 -> 203       -0.12109
     201 -> 204       -0.10717
     201 -> 205        0.14772

 Excited State   9:      Singlet-A      4.3124 eV  287.50 nm  f=0.1328  <S**2>=0.000
     189 -> 203       -0.13338
     190 -> 203        0.20318
     191 -> 203        0.18160
     192 -> 203        0.33572
     194 -> 203       -0.14973
     195 -> 203        0.15108
     198 -> 203        0.27439
     200 -> 203       -0.22762
     200 -> 204       -0.16594
     202 -> 206       -0.12207
     202 -> 208        0.10714

 Excited State  10:      Singlet-A      4.3443 eV  285.40 nm  f=0.0158  <S**2>=0.000
     190 -> 203        0.46048
     192 -> 203       -0.10145
     194 -> 203       -0.13092
     198 -> 203       -0.15259
     200 -> 203        0.10574
     201 -> 204       -0.14357
     201 -> 206        0.19878
     201 -> 208        0.12263
     202 -> 204        0.14547
     202 -> 206        0.21459

 The electronic state is 1-A.
 Alpha  occ. eigenvalues --  -89.02654 -88.96091 -88.95870 -88.94944 -19.24748
 Alpha  occ. eigenvalues --  -19.22459 -19.22342 -19.18929 -14.44177 -14.43904
 Alpha  occ. eigenvalues --  -14.41403 -14.38686 -10.39570 -10.32508 -10.32339
 Alpha  occ. eigenvalues --  -10.31222 -10.31131 -10.31006 -10.30929 -10.30517
 Alpha  occ. eigenvalues --  -10.30283 -10.30235 -10.30207 -10.30154 -10.30043
 Alpha  occ. eigenvalues --  -10.30007 -10.29578 -10.29241 -10.29146 -10.28874
 Alpha  occ. eigenvalues --  -10.28724 -10.28654 -10.28615 -10.28582 -10.27890
 Alpha  occ. eigenvalues --  -10.26631 -10.26582 -10.26382 -10.26177 -10.26132
 Alpha  occ. eigenvalues --  -10.25735 -10.25355 -10.25324 -10.25313 -10.25291
 Alpha  occ. eigenvalues --  -10.25287 -10.25237 -10.25213 -10.25174 -10.25127
 Alpha  occ. eigenvalues --  -10.24852 -10.24743 -10.24614 -10.24578  -8.11163
 Alpha  occ. eigenvalues --   -8.05014  -8.04780  -8.03861  -6.07678  -6.07077
 Alpha  occ. eigenvalues --   -6.06846  -6.01421  -6.01187  -6.01025  -6.00791
 Alpha  occ. eigenvalues --   -6.00648  -6.00417  -6.00264  -5.99870  -5.99505
 Alpha  occ. eigenvalues --   -1.20334  -1.15308  -1.15202  -1.12918  -1.11061
 Alpha  occ. eigenvalues --   -1.05227  -1.00383  -0.99930  -0.99599  -0.98733
 Alpha  occ. eigenvalues --   -0.97472  -0.96513  -0.94757  -0.94690  -0.92827
 Alpha  occ. eigenvalues --   -0.92622  -0.88839  -0.87193  -0.86778  -0.85422
 Alpha  occ. eigenvalues --   -0.85075  -0.84393  -0.84078  -0.83952  -0.83428
 Alpha  occ. eigenvalues --   -0.82912  -0.82566  -0.81790  -0.81228  -0.78981
 Alpha  occ. eigenvalues --   -0.78459  -0.77040  -0.75707  -0.73975  -0.73024
 Alpha  occ. eigenvalues --   -0.71604  -0.70981  -0.70891  -0.69955  -0.69455
 Alpha  occ. eigenvalues --   -0.69099  -0.67771  -0.67429  -0.66873  -0.65398
 Alpha  occ. eigenvalues --   -0.64335  -0.63139  -0.62084  -0.61970  -0.61830
 Alpha  occ. eigenvalues --   -0.61621  -0.60778  -0.60712  -0.60242  -0.59770
 Alpha  occ. eigenvalues --   -0.58831  -0.58462  -0.57222  -0.57052  -0.56713
 Alpha  occ. eigenvalues --   -0.56183  -0.55696  -0.55056  -0.54776  -0.54751
 Alpha  occ. eigenvalues --   -0.54642  -0.53975  -0.53222  -0.53007  -0.52444
 Alpha  occ. eigenvalues --   -0.52235  -0.51952  -0.50896  -0.50335  -0.50250
 Alpha  occ. eigenvalues --   -0.49850  -0.49761  -0.49696  -0.49482  -0.49316
 Alpha  occ. eigenvalues --   -0.48830  -0.48683  -0.48589  -0.48293  -0.47968
 Alpha  occ. eigenvalues --   -0.47805  -0.47074  -0.46644  -0.46485  -0.46382
 Alpha  occ. eigenvalues --   -0.46117  -0.45803  -0.45617  -0.45568  -0.45401
 Alpha  occ. eigenvalues --   -0.44479  -0.44411  -0.43944  -0.43682  -0.43634
 Alpha  occ. eigenvalues --   -0.43433  -0.43122  -0.42921  -0.42237  -0.41975
 Alpha  occ. eigenvalues --   -0.41265  -0.40606  -0.40436  -0.39956  -0.39884
 Alpha  occ. eigenvalues --   -0.39839  -0.39818  -0.39713  -0.39608  -0.38449
 Alpha  occ. eigenvalues --   -0.37632  -0.36804  -0.35952  -0.35272  -0.34003
 Alpha  occ. eigenvalues --   -0.32964  -0.32702  -0.32409  -0.32297  -0.31708
 Alpha  occ. eigenvalues --   -0.31610  -0.31279  -0.30087  -0.29038  -0.27628
 Alpha  occ. eigenvalues --   -0.24656  -0.22422
 Alpha virt. eigenvalues --   -0.09280  -0.03924  -0.03360  -0.00293   0.01541
 Alpha virt. eigenvalues --    0.02469   0.03051   0.03401   0.03674   0.03726
 Alpha virt. eigenvalues --    0.04020   0.04287   0.05167   0.06635   0.06712

 Mulliken charges:
               1
     1  C   -0.148428
     2  O   -0.342704
     3  C    0.158226
     4  C   -0.140994
     5  C   -0.064267
     6  C    0.040367
     7  N   -0.489960
     8  C    0.175006
     9  C   -0.120160
    10  C   -0.048828
    11  C   -0.009665
    12  C   -0.101338
    13  C   -0.119468
    14  H    0.126819
    15  H    0.112463
    16  C   -0.276790
    17  S    0.317013
    18  C   -0.253451
    19  C   -0.014575
    20  C   -0.056618
    21  H    0.107597
    22  H    0.106937
    23  C   -0.239883
    24  S    0.330191
    25  C   -0.258169
    26  C   -0.017147
    27  C   -0.028993
    28  H    0.110636
    29  H    0.111042
    30  C   -0.235758
    31  C   -0.021384
    32  C   -0.011567
    33  C   -0.305221
    34  S    0.339070
    35  C    0.109166
    36  C   -0.121147
    37  C   -0.033492
    38  C   -0.094990
    39  C    0.110014
    40  C    0.131538
    41  N   -0.484622
    42  S    0.571490
    43  N   -0.461362
    44  C    0.103528
    45  C   -0.213670
    46  C    0.045510
    47  N   -0.198093
    48  C    0.420945
    49  O   -0.334288
    50  H    0.265587
    51  O   -0.303350
    52  H    0.158244
    53  H    0.144734
    54  H    0.120353
    55  H    0.139633
    56  H    0.110613
    57  H    0.102301
    58  H    0.125717
    59  C    0.041253
    60  C   -0.064058
    61  C   -0.141027
    62  C    0.157924
    63  C   -0.093007
    64  C   -0.061328
    65  H    0.118445
    66  H    0.115086
    67  O   -0.343505
    68  C   -0.148351
    69  H    0.115158
    70  H    0.114572
    71  H    0.135317
    72  H    0.116079
    73  H    0.115099
    74  C   -0.060744
    75  C   -0.092348
    76  H    0.116417
    77  H    0.118870
    78  H    0.114365
    79  H    0.115957
    80  H    0.135960
    81  H    0.115542
    82  H    0.113966
 Sum of Mulliken charges =  -0.00000

 Dipole moment (field-independent basis, Debye):
    X=             -5.3727    Y=             -5.3755    Z=             -0.2024  Tot=              7.6028
 Quadrupole moment (field-independent basis, Debye-Ang):
   XX=           -240.4811   YY=           -338.4481   ZZ=           -339.8680
   XY=            -66.2083   XZ=             -7.0849   YZ=             -7.3758

 Normal termination of Gaussian 16 at Fri Jun  4 14:10:43 2021.
