 Gaussian 09, Revision D.01,
 Gaussian 09:  ES64L-G09RevD.01 24-Apr-2013

 ---------------------------------------
 #N bhandhlyp/6-311G(d,p) TD(NStates=10)
 ---------------------------------------

 ----
 Name
 ----
 Symbolic Z-matrix:
 Charge =  0 Multiplicity = 1

                         Standard orientation:
 ---------------------------------------------------------------------
 Center     Atomic      Atomic             Coordinates (Angstroms)
 Number     Number       Type             X           Y           Z
 ---------------------------------------------------------------------
      1          7           0       -4.334466    0.091766   -0.012098
      2          6           0       -4.941970   -1.170533    0.004853
      3          6           0       -6.328753   -1.213314   -0.218484
      4          6           0       -7.002632   -2.424504   -0.212842
      5          6           0       -6.312191   -3.616267    0.013202
      6          6           0       -4.940634   -3.574271    0.240283
      7          6           0       -4.249417   -2.364901    0.240740
      8          6           0       -0.474431    0.860577   -0.018027
      9          6           0       -1.218523    2.052229    0.003721
     10          6           0       -2.651490    1.845206    0.024011
     11          7           0       -3.382760    2.960053    0.042894
     12         16           0       -2.298314    4.190193    0.041470
     13          7           0       -0.885998    3.353582    0.014083
     14          6           0       -3.036354    0.485715    0.013173
     15         16           0       -1.609346   -0.495226   -0.027785
     16          8           0        8.054517   -1.577076   -0.010016
     17          6           0        6.738194   -1.891467   -0.017132
     18          6           0        5.777462   -0.743968   -0.010336
     19          6           0        6.301212    0.571355    0.003465
     20          7           0        6.788499    1.624046    0.014797
     21          6           0        4.436397   -1.034883   -0.017817
     22          6           0        3.317712   -0.170759   -0.014335
     23          6           0        3.208502    1.218811   -0.001343
     24          6           0        1.898244    1.693908   -0.001857
     25          6           0        0.932798    0.680079   -0.014568
     26         16           0        1.698955   -0.887135   -0.027690
     27          8           0        6.387007   -3.042960   -0.028360
     28          1           0       -4.973091    0.875945   -0.069114
     29          1           0       -6.870426   -0.290628   -0.400821
     30          1           0       -8.071919   -2.438539   -0.388340
     31          1           0       -6.838887   -4.562569    0.013870
     32          1           0       -4.392185   -4.490411    0.425331
     33          1           0       -3.189181   -2.369351    0.446427
     34          1           0        8.185026   -0.618623   -0.001280
     35          1           0        4.237378   -2.103645   -0.028132
     36          1           0        4.072089    1.868944    0.008468
     37          1           0        1.626597    2.739637    0.006703
 ---------------------------------------------------------------------

 SCF Done:  E(RBHandHLYP) =  -2255.51136312     A.U. after   18 cycles

 Excitation energies and oscillator strengths:

 Excited State   1:      Singlet-A      1.7733 eV  699.18 nm  f=0.3368  <S**2>=0.000
     105 ->106         0.69812
 This state for optimization and/or second-order correction.
 Total Energy, E(TD-HF/TD-KS) =  -2255.44619625
 Copying the excited state density for this state as the 1-particle RhoCI density.

 Excited State   2:      Singlet-A      2.9301 eV  423.15 nm  f=0.9800  <S**2>=0.000
     105 ->107         0.69082

 Excited State   3:      Singlet-A      3.7224 eV  333.08 nm  f=0.1389  <S**2>=0.000
     104 ->106         0.68658

 Excited State   4:      Singlet-A      3.8216 eV  324.43 nm  f=0.0011  <S**2>=0.000
     105 ->108         0.51114
     105 ->110         0.44141
     105 ->112        -0.11050

 Excited State   5:      Singlet-A      4.3016 eV  288.23 nm  f=0.0154  <S**2>=0.000
     100 ->106        -0.13885
     102 ->106         0.19112
     103 ->106         0.56229
     103 ->107         0.12235
     105 ->109         0.28416
     105 ->111        -0.10174

 Excited State   6:      Singlet-A      4.3671 eV  283.90 nm  f=0.2065  <S**2>=0.000
     102 ->106         0.50388
     103 ->106        -0.35413
     105 ->109         0.23509

 Excited State   7:      Singlet-A      4.5251 eV  273.99 nm  f=0.0174  <S**2>=0.000
     100 ->106         0.13426
     101 ->106         0.13457
     102 ->106        -0.31076
     103 ->106        -0.14585
     104 ->107        -0.10057
     105 ->109         0.54376

 Excited State   8:      Singlet-A      4.6051 eV  269.23 nm  f=0.0076  <S**2>=0.000
     100 ->106         0.15271
     101 ->106         0.40612
     102 ->106         0.23188
     104 ->108        -0.11952
     105 ->108        -0.28143
     105 ->110         0.33478

 Excited State   9:      Singlet-A      4.7071 eV  263.40 nm  f=0.1773  <S**2>=0.000
     100 ->106         0.61155
     102 ->106         0.13309
     105 ->108         0.15958
     105 ->110        -0.16111

 Excited State  10:      Singlet-A      4.7975 eV  258.43 nm  f=0.0330  <S**2>=0.000
     102 ->107         0.13171
     103 ->107        -0.13380
     104 ->107         0.64705
     105 ->109         0.10299

 The electronic state is 1-A.
 Alpha  occ. eigenvalues --  -90.16787 -90.13075 -90.08730 -19.71240 -19.64816
 Alpha  occ. eigenvalues --  -14.89832 -14.87669 -14.85687 -14.80526 -10.72866
 Alpha  occ. eigenvalues --  -10.72482 -10.67928 -10.67390 -10.67198 -10.66283
 Alpha  occ. eigenvalues --  -10.64727 -10.64164 -10.63533 -10.63195 -10.62685
 Alpha  occ. eigenvalues --  -10.62392 -10.62261 -10.62146 -10.62079 -10.61575
 Alpha  occ. eigenvalues --  -10.61331 -10.60042  -8.45056  -8.41732  -8.37510
 Alpha  occ. eigenvalues --   -6.30871  -6.30448  -6.30291  -6.27504  -6.27211
 Alpha  occ. eigenvalues --   -6.26963  -6.23287  -6.23022  -6.22711  -1.23847
 Alpha  occ. eigenvalues --   -1.18460  -1.15122  -1.14890  -1.04722  -1.04501
 Alpha  occ. eigenvalues --   -1.03793  -1.01896  -1.00113  -0.95074  -0.91049
 Alpha  occ. eigenvalues --   -0.90034  -0.89225  -0.88167  -0.86324  -0.82990
 Alpha  occ. eigenvalues --   -0.78207  -0.76491  -0.74949  -0.74574  -0.71082
 Alpha  occ. eigenvalues --   -0.70538  -0.69713  -0.67160  -0.66139  -0.64505
 Alpha  occ. eigenvalues --   -0.63361  -0.62821  -0.60380  -0.60034  -0.56763
 Alpha  occ. eigenvalues --   -0.56100  -0.55296  -0.54684  -0.53539  -0.53184
 Alpha  occ. eigenvalues --   -0.52282  -0.52221  -0.51968  -0.51870  -0.50455
 Alpha  occ. eigenvalues --   -0.48625  -0.48308  -0.46690  -0.46365  -0.46021
 Alpha  occ. eigenvalues --   -0.45826  -0.45002  -0.44793  -0.44463  -0.43797
 Alpha  occ. eigenvalues --   -0.42991  -0.42696  -0.41569  -0.40763  -0.40178
 Alpha  occ. eigenvalues --   -0.39976  -0.38512  -0.36330  -0.34528  -0.34438
 Alpha  occ. eigenvalues --   -0.33095  -0.32076  -0.31770  -0.29053  -0.22225
 Alpha virt. eigenvalues --   -0.10265  -0.05781  -0.00184   0.00098   0.00373
 Alpha virt. eigenvalues --    0.02573   0.02961   0.04499   0.05711   0.06550
 Alpha virt. eigenvalues --    0.07042   0.07230   0.07884   0.08136   0.08403

 Mulliken charges:
               1
     1  N   -0.512829
     2  C    0.217223
     3  C   -0.118560
     4  C   -0.093394
     5  C   -0.096300
     6  C   -0.100211
     7  C   -0.115988
     8  C   -0.344786
     9  C    0.270478
    10  C    0.145198
    11  N   -0.527988
    12  S    0.606929
    13  N   -0.554135
    14  C    0.068739
    15  S    0.433098
    16  O   -0.349290
    17  C    0.538753
    18  C   -0.225132
    19  C    0.006869
    20  N   -0.286188
    21  C    0.082520
    22  C   -0.305530
    23  C    0.005867
    24  C   -0.028203
    25  C   -0.169966
    26  S    0.298189
    27  O   -0.378661
    28  H    0.264206
    29  H    0.108802
    30  H    0.114412
    31  H    0.113341
    32  H    0.114662
    33  H    0.131769
    34  H    0.263335
    35  H    0.142591
    36  H    0.146364
    37  H    0.133813
 Sum of Mulliken charges =   0.00000

 Dipole moment (field-independent basis, Debye):
    X=            -13.6637    Y=              1.2984    Z=             -0.0163  Tot=             13.7252
 Quadrupole moment (field-independent basis, Debye-Ang):
   XX=           -195.9882   YY=           -177.7171   ZZ=           -180.7739
   XY=             19.6713   XZ=              1.9208   YZ=             -1.1073

 Normal termination of Gaussian 09 at Sat Sep 11 10:54:18 2021.
