 Gaussian 16, Revision B.01,
 Gaussian 16:  ES64L-G16RevB.01 20-Dec-2017

 -----------------------------------
 #N TD(NStates=10) M062X/6-311G(d,p)
 -----------------------------------

 ----
 Name
 ----
 Symbolic Z-matrix:
 Charge =  0 Multiplicity = 1

                         Standard orientation:
 ---------------------------------------------------------------------
 Center     Atomic      Atomic             Coordinates (Angstroms)
 Number     Number       Type             X           Y           Z
 ---------------------------------------------------------------------
      1          6           0        7.854865    6.024058    0.403487
      2          8           0        6.930098    5.445576   -0.507285
      3          6           0        6.551439    4.151509   -0.314600
      4          6           0        7.013084    3.328698    0.716028
      5          6           0        6.548922    2.017843    0.819648
      6          6           0        5.639310    1.501770   -0.102244
      7          7           0        5.195402    0.146676   -0.004616
      8          6           0        3.831426   -0.166409   -0.016121
      9          6           0        3.376849   -1.423317   -0.463194
     10          6           0        2.028745   -1.730473   -0.469197
     11          6           0        1.058040   -0.808007   -0.035304
     12          6           0        1.519446    0.446258    0.403126
     13          6           0        2.865936    0.763307    0.416735
     14          1           0        3.182701    1.731893    0.780526
     15          1           0        0.810972    1.178648    0.774162
     16          6           0       -0.355386   -1.156756   -0.040233
     17         16           0       -1.598290    0.071945   -0.059677
     18          6           0       -2.889919   -1.128032   -0.041858
     19          6           0       -2.339225   -2.399356   -0.041965
     20          6           0       -0.933701   -2.413395   -0.039446
     21          1           0       -0.351646   -3.324188   -0.004324
     22          1           0       -2.952581   -3.286838   -0.029235
     23          6           0       -4.274635   -0.725308   -0.027824
     24          6           0       -4.663327    0.611667    0.041976
     25          6           0       -5.998093    1.048696    0.058794
     26          6           0       -7.081872    0.178411    0.008897
     27          6           0       -6.743828   -1.219490   -0.067869
     28          6           0       -5.365060   -1.673476   -0.086099
     29          7           0       -5.257420   -3.000011   -0.162402
     30         16           0       -6.774991   -3.613123   -0.206354
     31          7           0       -7.627557   -2.214635   -0.131885
     32          6           0       -8.479634    0.528438    0.026300
     33          6           0       -9.115721    1.732156    0.098297
     34          6           0       -8.432816    2.976899    0.214181
     35          7           0       -7.859740    3.978005    0.290750
     36          6           0      -10.612934    1.843960    0.167833
     37          8           0      -11.170170    2.794364    0.639908
     38          8           0      -11.326407    0.795559   -0.320491
     39          1           0      -10.764773    0.217454   -0.849414
     40          1           0       -9.119864   -0.348824    0.005237
     41          1           0       -6.169390    2.114206    0.118876
     42          1           0       -3.896732    1.375424    0.092792
     43          1           0        1.717481   -2.694805   -0.853227
     44          1           0        4.091832   -2.151590   -0.822929
     45          6           0        6.182485   -0.880510    0.109488
     46          6           0        7.243138   -0.949132   -0.792860
     47          6           0        8.226109   -1.931155   -0.674294
     48          6           0        8.146178   -2.876241    0.351647
     49          6           0        7.080856   -2.813495    1.259788
     50          6           0        6.119176   -1.823881    1.145719
     51          1           0        5.306643   -1.776838    1.861042
     52          1           0        7.039224   -3.545811    2.056842
     53          8           0        9.042096   -3.882022    0.555863
     54          6           0       10.140418   -4.002717   -0.337475
     55          1           0        9.804647   -4.183713   -1.364656
     56          1           0       10.777211   -3.111220   -0.314833
     57          1           0       10.712574   -4.861240    0.009852
     58          1           0        9.036138   -1.951624   -1.390748
     59          1           0        7.307425   -0.223104   -1.594546
     60          6           0        5.191810    2.330782   -1.141623
     61          6           0        5.633098    3.639345   -1.240941
     62          1           0        5.292087    4.286042   -2.040189
     63          1           0        4.491923    1.941314   -1.871452
     64          1           0        6.906439    1.386992    1.624756
     65          1           0        7.721313    3.693910    1.447422
     66          1           0        8.009898    7.045443    0.060366
     67          1           0        7.455829    6.042205    1.423759
     68          1           0        8.812336    5.491153    0.396740
 ---------------------------------------------------------------------

 SCF Done:  E(RM062X) =  -2626.01145996     A.U. after   17 cycles

 Excitation energies and oscillator strengths:

 Excited State   1:      Singlet-A      2.2970 eV  539.76 nm  f=1.1217  <S**2>=0.000
     159 ->161         0.27645
     160 ->161         0.63780
 This state for optimization and/or second-order correction.
 Total Energy, E(TD-HF/TD-DFT) =  -2625.92704546
 Copying the excited state density for this state as the 1-particle RhoCI density.

 Excited State   2:      Singlet-A      3.1541 eV  393.09 nm  f=0.1040  <S**2>=0.000
     157 ->161         0.19994
     159 ->161         0.60923
     160 ->161        -0.27432

 Excited State   3:      Singlet-A      3.7320 eV  332.22 nm  f=0.5922  <S**2>=0.000
     159 ->162         0.29330
     160 ->162         0.44796
     160 ->163         0.41045

 Excited State   4:      Singlet-A      3.9184 eV  316.42 nm  f=0.2257  <S**2>=0.000
     151 ->161         0.13158
     157 ->161        -0.13314
     159 ->162        -0.23522
     160 ->162        -0.32603
     160 ->163         0.47239

 Excited State   5:      Singlet-A      4.0616 eV  305.26 nm  f=0.0137  <S**2>=0.000
     152 ->161         0.17098
     154 ->161         0.18299
     155 ->161         0.25605
     156 ->161         0.26149
     157 ->161         0.44061
     159 ->161        -0.16498
     160 ->163         0.18136

 Excited State   6:      Singlet-A      4.1042 eV  302.09 nm  f=0.0233  <S**2>=0.000
     159 ->164        -0.13163
     160 ->164         0.64697

 Excited State   7:      Singlet-A      4.1652 eV  297.67 nm  f=0.0496  <S**2>=0.000
     152 ->161        -0.20837
     154 ->161         0.41737
     155 ->161         0.12799
     156 ->161         0.32255
     157 ->161        -0.33533

 Excited State   8:      Singlet-A      4.3688 eV  283.80 nm  f=0.0860  <S**2>=0.000
     151 ->161         0.61376
     152 ->161         0.11360
     159 ->163         0.13348
     160 ->165        -0.11065

 Excited State   9:      Singlet-A      4.5345 eV  273.43 nm  f=0.0063  <S**2>=0.000
     158 ->161         0.67278

 Excited State  10:      Singlet-A      4.5414 eV  273.01 nm  f=0.0018  <S**2>=0.000
     149 ->161         0.12589
     150 ->161         0.49222
     150 ->162         0.29794
     150 ->163        -0.12559
     150 ->174         0.20494
     158 ->161         0.11797

 The electronic state is 1-A.
 Alpha  occ. eigenvalues --  -90.00991 -89.93591 -19.67280 -19.65949 -19.65865
 Alpha  occ. eigenvalues --  -19.61641 -14.81267 -14.81060 -14.78681 -14.75913
 Alpha  occ. eigenvalues --  -10.69206 -10.62466 -10.62362 -10.61516 -10.61446
 Alpha  occ. eigenvalues --  -10.60991 -10.60806 -10.60698 -10.60275 -10.60171
 Alpha  occ. eigenvalues --  -10.60075 -10.59984 -10.59543 -10.59188 -10.59033
 Alpha  occ. eigenvalues --  -10.58984 -10.58699 -10.58519 -10.57660 -10.56648
 Alpha  occ. eigenvalues --  -10.56173 -10.55881 -10.55845 -10.55670 -10.55629
 Alpha  occ. eigenvalues --  -10.55614 -10.55588 -10.55569 -10.55461 -10.55392
 Alpha  occ. eigenvalues --  -10.55097 -10.55057 -10.55024 -10.55020  -8.37156
 Alpha  occ. eigenvalues --   -8.30134  -6.29247  -6.28898  -6.28748  -6.22208
 Alpha  occ. eigenvalues --   -6.21995  -6.21752  -1.23850  -1.19954  -1.19873
 Alpha  occ. eigenvalues --   -1.15804  -1.15337  -1.08768  -1.02924  -1.02595
 Alpha  occ. eigenvalues --   -1.01025  -0.99180  -0.97377  -0.97344  -0.95460
 Alpha  occ. eigenvalues --   -0.94514  -0.89972  -0.88390  -0.87742  -0.87271
 Alpha  occ. eigenvalues --   -0.86227  -0.86082  -0.85665  -0.84443  -0.83772
 Alpha  occ. eigenvalues --   -0.82134  -0.80264  -0.79117  -0.77377  -0.75017
 Alpha  occ. eigenvalues --   -0.72930  -0.72445  -0.72242  -0.71553  -0.70970
 Alpha  occ. eigenvalues --   -0.70715  -0.69505  -0.68708  -0.66875  -0.66354
 Alpha  occ. eigenvalues --   -0.64773  -0.63988  -0.62920  -0.62849  -0.61538
 Alpha  occ. eigenvalues --   -0.60868  -0.60049  -0.59771  -0.58847  -0.57947
 Alpha  occ. eigenvalues --   -0.57715  -0.56491  -0.55854  -0.55765  -0.55564
 Alpha  occ. eigenvalues --   -0.54741  -0.54434  -0.53828  -0.53432  -0.53120
 Alpha  occ. eigenvalues --   -0.53005  -0.52800  -0.51598  -0.50894  -0.50531
 Alpha  occ. eigenvalues --   -0.50350  -0.50236  -0.49940  -0.49073  -0.48985
 Alpha  occ. eigenvalues --   -0.48590  -0.48356  -0.47893  -0.46997  -0.46918
 Alpha  occ. eigenvalues --   -0.46577  -0.46434  -0.46210  -0.46076  -0.45874
 Alpha  occ. eigenvalues --   -0.45121  -0.44733  -0.44494  -0.44332  -0.43903
 Alpha  occ. eigenvalues --   -0.43477  -0.42761  -0.42553  -0.41231  -0.41095
 Alpha  occ. eigenvalues --   -0.40713  -0.40328  -0.40307  -0.40208  -0.40146
 Alpha  occ. eigenvalues --   -0.39974  -0.39138  -0.37888  -0.36897  -0.36519
 Alpha  occ. eigenvalues --   -0.33948  -0.33534  -0.32837  -0.32184  -0.32121
 Alpha  occ. eigenvalues --   -0.31773  -0.30172  -0.29553  -0.26615  -0.23109
 Alpha virt. eigenvalues --   -0.10441  -0.04843  -0.02985  -0.00341   0.01459
 Alpha virt. eigenvalues --    0.01553   0.01933   0.02204   0.02237   0.02871
 Alpha virt. eigenvalues --    0.04645   0.04977   0.05407   0.06025   0.06463

 Mulliken charges:
               1
     1  C   -0.209324
     2  O   -0.375690
     3  C    0.175090
     4  C   -0.161050
     5  C   -0.071782
     6  C    0.027470
     7  N   -0.545153
     8  C    0.191849
     9  C   -0.145051
    10  C   -0.054047
    11  C   -0.018656
    12  C   -0.117327
    13  C   -0.144007
    14  H    0.155632
    15  H    0.144078
    16  C   -0.306418
    17  S    0.369127
    18  C   -0.338579
    19  C   -0.024579
    20  C   -0.079679
    21  H    0.138970
    22  H    0.165984
    23  C    0.149942
    24  C   -0.161954
    25  C   -0.043160
    26  C   -0.080797
    27  C    0.121437
    28  C    0.143744
    29  N   -0.530746
    30  S    0.603007
    31  N   -0.526169
    32  C    0.018395
    33  C   -0.198186
    34  C    0.103586
    35  N   -0.266287
    36  C    0.499618
    37  O   -0.319160
    38  O   -0.337070
    39  H    0.266308
    40  H    0.154842
    41  H    0.171595
    42  H    0.147474
    43  H    0.133907
    44  H    0.154575
    45  C    0.027145
    46  C   -0.071292
    47  C   -0.161196
    48  C    0.174860
    49  C   -0.114372
    50  C   -0.081943
    51  H    0.148604
    52  H    0.143157
    53  O   -0.376093
    54  C   -0.209301
    55  H    0.138884
    56  H    0.138263
    57  H    0.157113
    58  H    0.145264
    59  H    0.141450
    60  C   -0.081784
    61  C   -0.114004
    62  H    0.143743
    63  H    0.148708
    64  H    0.141115
    65  H    0.145248
    66  H    0.157444
    67  H    0.139386
    68  H    0.137841
 Sum of Mulliken charges =  -0.00000

 Dipole moment (field-independent basis, Debye):
    X=             12.3603    Y=             -5.5896    Z=             -1.5960  Tot=             13.6590
 Quadrupole moment (field-independent basis, Debye-Ang):
   XX=           -293.5606   YY=           -265.2334   ZZ=           -267.3851
   XY=             63.3749   XZ=             16.2107   YZ=              5.7041

 Normal termination of Gaussian 16 at Fri Jun 11 14:59:52 2021.
