 Gaussian 09, Revision D.01,
 Gaussian 09:  ES64L-G09RevD.01 24-Apr-2013

 ---------------
 #N HF/6-31G OPT
 ---------------

 ------------------------------------------------------------
 triphenylamine::thienopyrazine::2-cyano-2-phenylacrylic acid
 ------------------------------------------------------------
 Symbolic Z-matrix:
 Charge =  0 Multiplicity = 1

 SCF Done:  E(RHF) =  -2064.58673248     A.U. after   20 cycles
 SCF Done:  E(RHF) =  -2064.62181770     A.U. after   17 cycles
 SCF Done:  E(RHF) =  -2064.63717697     A.U. after   19 cycles
 SCF Done:  E(RHF) =  -2064.64117241     A.U. after   18 cycles
 SCF Done:  E(RHF) =  -2064.64209742     A.U. after   18 cycles
 SCF Done:  E(RHF) =  -2064.64290669     A.U. after   15 cycles
 SCF Done:  E(RHF) =  -2064.64408105     A.U. after   15 cycles
 SCF Done:  E(RHF) =  -2064.64451839     A.U. after   16 cycles
 SCF Done:  E(RHF) =  -2064.64363135     A.U. after   18 cycles
 SCF Done:  E(RHF) =  -2064.64515630     A.U. after   17 cycles
 SCF Done:  E(RHF) =  -2064.64543796     A.U. after   11 cycles
 SCF Done:  E(RHF) =  -2064.64543829     A.U. after   10 cycles
 SCF Done:  E(RHF) =  -2064.64543840     A.U. after    9 cycles
 SCF Done:  E(RHF) =  -2064.64543846     A.U. after   10 cycles
 SCF Done:  E(RHF) =  -2064.64543851     A.U. after    8 cycles
 SCF Done:  E(RHF) =  -2064.64543854     A.U. after    9 cycles
 SCF Done:  E(RHF) =  -2064.64543857     A.U. after    9 cycles
 SCF Done:  E(RHF) =  -2064.64543858     A.U. after    9 cycles
 SCF Done:  E(RHF) =  -2064.64543859     A.U. after    8 cycles
 SCF Done:  E(RHF) =  -2064.64543860     A.U. after    8 cycles
 Optimization completed.
    -- Stationary point found.

                         Standard orientation:
 ---------------------------------------------------------------------
 Center     Atomic      Atomic             Coordinates (Angstroms)
 Number     Number       Type             X           Y           Z
 ---------------------------------------------------------------------
      1          6           0       -7.042771    4.521475   -0.129370
      2          6           0       -6.165575    4.024075   -1.083075
      3          6           0       -5.745458    2.704063   -1.027786
      4          6           0       -6.186921    1.870414   -0.003928
      5          7           0       -5.760835    0.510302    0.054759
      6          6           0       -6.748959   -0.513339    0.158239
      7          6           0       -6.666266   -1.475142    1.161339
      8          6           0       -7.632100   -2.464734    1.260419
      9          6           0       -8.698585   -2.495612    0.372734
     10          6           0       -8.787689   -1.531746   -0.621261
     11          6           0       -7.815306   -0.549522   -0.734611
     12          6           0       -4.390846    0.185461    0.015343
     13          6           0       -3.949534   -0.991759   -0.591695
     14          6           0       -2.606838   -1.313386   -0.626891
     15          6           0       -1.646062   -0.467833   -0.063807
     16          6           0       -2.095752    0.710705    0.537223
     17          6           0       -3.437433    1.032210    0.583467
     18          6           0       -7.061461    2.372398    0.954563
     19          6           0       -7.491601    3.689033    0.885828
     20          6           0        1.974460   -4.195061   -0.407517
     21          6           0        0.527025   -4.270698   -0.389530
     22          7           0       -0.208299   -3.220823   -0.301477
     23          6           0        0.420348   -1.989478   -0.221056
     24          6           0       -0.222091   -0.789823   -0.113826
     25         16           0        1.005851    0.505472   -0.028020
     26          6           0        2.374968   -0.653914   -0.128158
     27          6           0        1.861855   -1.912941   -0.226115
     28          7           0        2.607040   -3.079266   -0.329113
     29          7           0        9.461540   -1.647167    0.601067
     30          6           0        9.245780   -0.536819    0.409071
     31          6           0        8.974588    0.845147    0.170392
     32          6           0        7.747872    1.371341   -0.013332
     33          6           0        6.419085    0.771961   -0.030775
     34          6           0        6.131296   -0.586871    0.138487
     35          6           0        4.831010   -1.049446    0.105471
     36          6           0        3.755627   -0.174852   -0.101508
     37          6           0        4.043030    1.183573   -0.273515
     38          6           0        5.342450    1.641307   -0.237977
     39          6           0       10.168068    1.704775    0.136225
     40          8           0       11.306478    1.318700    0.291038
     41          8           0        9.891571    3.011456   -0.089875
     42          1           0       -7.372301    5.541144   -0.177815
     43          1           0       -5.817434    4.657605   -1.876056
     44          1           0       -5.077655    2.316626   -1.771971
     45          1           0       -5.848918   -1.445237    1.854750
     46          1           0       -7.556572   -3.201921    2.036422
     47          1           0       -9.448646   -3.258001    0.455374
     48          1           0       -9.606797   -1.547806   -1.314160
     49          1           0       -7.880087    0.190169   -1.507978
     50          1           0       -4.659844   -1.653071   -1.044242
     51          1           0       -2.299367   -2.222821   -1.096244
     52          1           0       -1.395222    1.377020    1.001802
     53          1           0       -3.748542    1.934847    1.068225
     54          1           0       -7.402179    1.731515    1.743635
     55          1           0       -8.168239    4.064129    1.629297
     56          1           0        2.548548   -5.095760   -0.488203
     57          1           0        0.046506   -5.225680   -0.449382
     58          1           0        7.746108    2.431199   -0.176794
     59          1           0        6.912724   -1.297414    0.299855
     60          1           0        4.642281   -2.092481    0.230675
     61          1           0        3.253495    1.886632   -0.446806
     62          1           0        5.528663    2.689597   -0.376229
     63          1           0       10.672076    3.559820   -0.110196
 ---------------------------------------------------------------------

 The electronic state is 1-A.
 Alpha  occ. eigenvalues --  -91.99750 -20.62697 -20.57421 -15.61685 -15.61459
 Alpha  occ. eigenvalues --  -15.59473 -15.59085 -11.42623 -11.31565 -11.31552
 Alpha  occ. eigenvalues --  -11.31023 -11.30945 -11.30644 -11.30505 -11.30090
 Alpha  occ. eigenvalues --  -11.29924 -11.29817 -11.29165 -11.28925 -11.28880
 Alpha  occ. eigenvalues --  -11.28723 -11.27389 -11.26735 -11.26233 -11.25925
 Alpha  occ. eigenvalues --  -11.25739 -11.25357 -11.24803 -11.24787 -11.24516
 Alpha  occ. eigenvalues --  -11.24481 -11.24438 -11.24416 -11.24132 -11.24077
 Alpha  occ. eigenvalues --  -11.24051 -11.24050 -11.24014 -11.23976 -11.23955
 Alpha  occ. eigenvalues --  -11.23738  -9.01416  -6.69553  -6.69416  -6.69180
 Alpha  occ. eigenvalues --   -1.49664  -1.38751  -1.34310  -1.28909  -1.25713
 Alpha  occ. eigenvalues --   -1.25411  -1.20824  -1.19122  -1.17118  -1.16980
 Alpha  occ. eigenvalues --   -1.14641  -1.13889  -1.08253  -1.05676  -1.04662
 Alpha  occ. eigenvalues --   -1.04144  -1.03161  -1.02938  -1.02735  -1.02365
 Alpha  occ. eigenvalues --   -1.00804  -0.97383  -0.93563  -0.91746  -0.88337
 Alpha  occ. eigenvalues --   -0.87805  -0.86540  -0.85811  -0.85178  -0.84351
 Alpha  occ. eigenvalues --   -0.83862  -0.83117  -0.81750  -0.79919  -0.78675
 Alpha  occ. eigenvalues --   -0.75200  -0.74259  -0.73777  -0.73196  -0.72668
 Alpha  occ. eigenvalues --   -0.70978  -0.70555  -0.69306  -0.68538  -0.67369
 Alpha  occ. eigenvalues --   -0.66925  -0.65993  -0.65348  -0.65001  -0.64412
 Alpha  occ. eigenvalues --   -0.63572  -0.63429  -0.62601  -0.62486  -0.61536
 Alpha  occ. eigenvalues --   -0.61245  -0.60939  -0.60469  -0.59996  -0.59846
 Alpha  occ. eigenvalues --   -0.59690  -0.59643  -0.58905  -0.56442  -0.55263
 Alpha  occ. eigenvalues --   -0.55059  -0.54868  -0.53866  -0.52808  -0.52710
 Alpha  occ. eigenvalues --   -0.52337  -0.52135  -0.51954  -0.51416  -0.51058
 Alpha  occ. eigenvalues --   -0.50917  -0.49873  -0.49791  -0.49670  -0.48996
 Alpha  occ. eigenvalues --   -0.48544  -0.48236  -0.47709  -0.46800  -0.46315
 Alpha  occ. eigenvalues --   -0.44187  -0.42593  -0.40160  -0.37498  -0.36686
 Alpha  occ. eigenvalues --   -0.35764  -0.35626  -0.35366  -0.34728  -0.34125
 Alpha  occ. eigenvalues --   -0.33884  -0.29631  -0.25685
 Alpha virt. eigenvalues --    0.00453   0.04710   0.10652   0.11817   0.12614
 Alpha virt. eigenvalues --    0.12751   0.13247   0.14476   0.14693   0.15787
 Alpha virt. eigenvalues --    0.17566   0.18594   0.19127   0.19496   0.21595

 Mulliken charges:
               1
     1  C   -0.197169
     2  C   -0.203553
     3  C   -0.185477
     4  C    0.288788
     5  N   -1.092838
     6  C    0.290641
     7  C   -0.185309
     8  C   -0.203281
     9  C   -0.197247
    10  C   -0.202268
    11  C   -0.187363
    12  C    0.374592
    13  C   -0.230669
    14  C   -0.140004
    15  C    0.002648
    16  C   -0.214224
    17  C   -0.223885
    18  C   -0.186752
    19  C   -0.202389
    20  C    0.043839
    21  C    0.020263
    22  N   -0.497124
    23  C    0.274064
    24  C   -0.469431
    25  S    0.662927
    26  C   -0.512762
    27  C    0.322770
    28  N   -0.524707
    29  N   -0.290891
    30  C    0.075090
    31  C   -0.092812
    32  C   -0.059766
    33  C   -0.038836
    34  C   -0.175019
    35  C   -0.187489
    36  C    0.067621
    37  C   -0.249650
    38  C   -0.209132
    39  C    0.783834
    40  O   -0.529580
    41  O   -0.757120
    42  H    0.202711
    43  H    0.204543
    44  H    0.222551
    45  H    0.223567
    46  H    0.204805
    47  H    0.202506
    48  H    0.204455
    49  H    0.223219
    50  H    0.229309
    51  H    0.254133
    52  H    0.227693
    53  H    0.230263
    54  H    0.223807
    55  H    0.204846
    56  H    0.229928
    57  H    0.226323
    58  H    0.271003
    59  H    0.265098
    60  H    0.280340
    61  H    0.233615
    62  H    0.223411
    63  H    0.451546
 Sum of Mulliken charges =   0.00000

 Dipole moment (field-independent basis, Debye):
    X=             -8.7428    Y=              2.9328    Z=             -1.1939  Tot=              9.2986
 Quadrupole moment (field-independent basis, Debye-Ang):
   XX=           -316.7712   YY=           -209.0580   ZZ=           -245.1388
   XY=             38.6738   XZ=            -11.7623   YZ=              0.5371

 Normal termination of Gaussian 09 at Wed May 19 20:17:38 2021.
