 Gaussian 16, Revision B.01,
 Gaussian 16:  ES64L-G16RevB.01 20-Dec-2017

 ---------------------------------------
 #N TD(NStates=10) CAM-B3lYP/6-311G(d,p)
 ---------------------------------------

 ----
 Name
 ----
 Symbolic Z-matrix:
 Charge =  0 Multiplicity = 1

                         Standard orientation:
 ---------------------------------------------------------------------
 Center     Atomic      Atomic             Coordinates (Angstroms)
 Number     Number       Type             X           Y           Z
 ---------------------------------------------------------------------
      1          6           0       -0.937367   -3.073447    0.186672
      2          6           0       -2.122867   -2.115248    0.081661
      3          6           0       -1.679316   -0.804099   -0.068452
      4          6           0       -0.249325   -0.787165   -0.077728
      5         16           0        1.036410    0.361025   -0.215518
      6          6           0        2.238860   -0.926149   -0.055578
      7          6           0        3.663445   -0.618716   -0.088081
      8          6           0        4.167072    0.639785    0.284618
      9          6           0        5.523215    0.918205    0.260048
     10          6           0        6.453643   -0.056471   -0.145370
     11          7           0        7.828021    0.221147   -0.178165
     12          6           0        8.300703    1.552970   -0.385806
     13          6           0        9.254197    2.109715    0.465769
     14          1           0        9.625209    1.528423    1.301420
     15          6           0        9.745666    3.397532    0.252908
     16          6           0        9.267005    4.157431   -0.817016
     17          6           0        8.304305    3.605310   -1.672687
     18          6           0        7.836741    2.318757   -1.466163
     19          1           0        7.103023    1.897060   -2.142771
     20          1           0        7.950783    4.202556   -2.504337
     21          8           0        9.668305    5.425275   -1.114274
     22          6           0       10.642233    6.039950   -0.282435
     23          1           0       10.285306    6.139026    0.748855
     24          1           0       11.585682    5.482513   -0.288556
     25          1           0       10.808033    7.030888   -0.701547
     26          1           0       10.488787    3.794368    0.931210
     27          6           0        8.790537   -0.816003    0.014590
     28          6           0        8.706892   -1.681719    1.105345
     29          6           0        9.647255   -2.694117    1.294967
     30          6           0       10.707870   -2.836370    0.396541
     31          6           0       10.805065   -1.960304   -0.692355
     32          6           0        9.855745   -0.970857   -0.884487
     33          1           0        9.935782   -0.303465   -1.734163
     34          1           0       11.631034   -2.085101   -1.381938
     35          8           0       11.686719   -3.780380    0.489179
     36          6           0       11.645727   -4.694126    1.575939
     37          1           0       11.722954   -4.177359    2.539191
     38          1           0       10.731032   -5.297522    1.559834
     39          1           0       12.508032   -5.346312    1.448547
     40          1           0        9.548391   -3.348753    2.150306
     41          1           0        7.894861   -1.569078    1.813892
     42          6           0        5.957184   -1.318867   -0.523743
     43          6           0        4.600126   -1.587169   -0.494737
     44          1           0        4.253834   -2.557328   -0.831925
     45          1           0        6.645870   -2.082701   -0.860973
     46          1           0        5.873589    1.893646    0.571326
     47          1           0        3.486389    1.408137    0.634689
     48          6           0        1.625489   -2.161053    0.078410
     49          6           0        0.219718   -2.083396    0.064821
     50          1           0        2.191968   -3.072577    0.214700
     51         16           0       -2.977646    0.322058   -0.184968
     52          6           0       -4.162184   -0.988087   -0.012416
     53          6           0       -3.516210   -2.217730    0.113955
     54          1           0       -4.064580   -3.142153    0.244654
     55          6           0       -5.567054   -0.737299   -0.045138
     56         16           0       -6.680862   -2.036515   -0.376555
     57          6           0       -8.117241   -1.007346   -0.249715
     58          6           0       -7.699721    0.298072    0.013178
     59          6           0       -6.283611    0.455188    0.144695
     60          6           0       -5.918293    1.776862    0.543528
     61          6           0       -7.002029    2.580666    0.716207
     62         16           0       -8.542754    1.781825    0.380001
     63          6           0       -6.929485    3.995445    1.127359
     64          8           0       -5.900200    4.586493    1.352715
     65          8           0       -8.156994    4.542399    1.221469
     66          6           0       -8.202058    5.929065    1.604344
     67          1           0       -7.756993    6.064628    2.591080
     68          1           0       -7.661788    6.539691    0.879736
     69          1           0       -9.257040    6.190991    1.617581
     70          1           0       -4.914608    2.135918    0.716605
     71          6           0       -9.376140   -1.653440   -0.354095
     72          6           0      -10.622163   -1.158916   -0.653764
     73          6           0      -10.831709    0.144243   -1.177590
     74          7           0      -10.995247    1.193976   -1.635252
     75          6           0      -11.834467   -2.036742   -0.645164
     76          8           0      -11.763023   -3.147544    0.146859
     77          1           0      -11.061204   -3.044195    0.799445
     78          8           0      -12.816952   -1.818928   -1.296115
     79          1           0       -9.331350   -2.730405   -0.206037
     80          6           0       -0.917271   -3.800420    1.548251
     81          1           0       -0.924169   -3.086302    2.374015
     82          1           0       -1.789433   -4.452223    1.648799
     83          1           0       -0.021019   -4.420217    1.637464
     84          6           0       -0.930182   -4.093261   -0.972236
     85          1           0       -0.947217   -3.587426   -1.939546
     86          1           0       -0.033600   -4.717316   -0.926403
     87          1           0       -1.802170   -4.750158   -0.911574
 ---------------------------------------------------------------------

 SCF Done:  E(RCAM-B3LYP) =  -3810.86687531     A.U. after   17 cycles

 Excitation energies and oscillator strengths:

 Excited State   1:      Singlet-A      2.3028 eV  538.41 nm  f=1.8484  <S**2>=0.000
     207 -> 209       -0.34883
     208 -> 209        0.58474
 This state for optimization and/or second-order correction.
 Total Energy, E(TD-HF/TD-DFT) =  -3810.78224890
 Copying the excited state density for this state as the 1-particle RhoCI density.

 Excited State   2:      Singlet-A      3.1897 eV  388.70 nm  f=0.0350  <S**2>=0.000
     206 -> 209        0.32475
     207 -> 209        0.49993
     208 -> 209        0.25736
     208 -> 210       -0.17574
     208 -> 211        0.16407

 Excited State   3:      Singlet-A      3.4923 eV  355.02 nm  f=0.0617  <S**2>=0.000
     206 -> 210       -0.14014
     206 -> 211       -0.11509
     207 -> 209        0.14818
     207 -> 210       -0.40225
     208 -> 209        0.18242
     208 -> 210        0.47037

 Excited State   4:      Singlet-A      3.7422 eV  331.32 nm  f=0.4398  <S**2>=0.000
     206 -> 209       -0.14642
     206 -> 210       -0.14504
     207 -> 210       -0.19129
     207 -> 211       -0.14304
     208 -> 209       -0.12039
     208 -> 211        0.56382
     208 -> 213       -0.11707

 Excited State   5:      Singlet-A      3.7869 eV  327.40 nm  f=0.0100  <S**2>=0.000
     203 -> 209        0.12651
     204 -> 209        0.27184
     206 -> 209        0.49177
     207 -> 209       -0.26008
     207 -> 211       -0.14800
     208 -> 209       -0.14736

 Excited State   6:      Singlet-A      4.0617 eV  305.25 nm  f=0.0271  <S**2>=0.000
     207 -> 212        0.30933
     208 -> 212        0.58563

 Excited State   7:      Singlet-A      4.1510 eV  298.69 nm  f=0.1613  <S**2>=0.000
     202 -> 209        0.37866
     203 -> 209        0.53257
     206 -> 209       -0.11593
     208 -> 210       -0.10208

 Excited State   8:      Singlet-A      4.3142 eV  287.38 nm  f=0.1079  <S**2>=0.000
     204 -> 211       -0.10204
     207 -> 210       -0.22289
     207 -> 211        0.43392
     208 -> 209       -0.11283
     208 -> 210       -0.12179
     208 -> 213       -0.35196
     208 -> 214        0.14477

 Excited State   9:      Singlet-A      4.4814 eV  276.66 nm  f=0.0355  <S**2>=0.000
     197 -> 209        0.10410
     198 -> 209        0.44319
     199 -> 209       -0.12072
     200 -> 209        0.17954
     202 -> 209       -0.11442
     204 -> 209        0.16608
     206 -> 209       -0.15268
     207 -> 213       -0.17009
     207 -> 214       -0.16302
     208 -> 214        0.19429

 Excited State  10:      Singlet-A      4.5428 eV  272.93 nm  f=0.0174  <S**2>=0.000
     196 -> 209        0.10505
     197 -> 209       -0.19926
     206 -> 210        0.25887
     207 -> 210        0.22491
     208 -> 210        0.34248
     208 -> 211        0.14545
     208 -> 213       -0.11163
     208 -> 214        0.18443
     208 -> 216        0.11720
     208 -> 218       -0.11150

 The electronic state is 1-A.
 Alpha  occ. eigenvalues --  -88.97760 -88.97394 -88.96232 -88.96178 -19.24783
 Alpha  occ. eigenvalues --  -19.24015 -19.22869 -19.22726 -19.18766 -19.17849
 Alpha  occ. eigenvalues --  -14.41967 -14.38089 -10.39200 -10.38825 -10.33295
 Alpha  occ. eigenvalues --  -10.31681 -10.31616 -10.31557 -10.31510 -10.31326
 Alpha  occ. eigenvalues --  -10.31158 -10.30886 -10.30664 -10.30490 -10.30484
 Alpha  occ. eigenvalues --  -10.30399 -10.30251 -10.30213 -10.30036 -10.29497
 Alpha  occ. eigenvalues --  -10.29437 -10.29111 -10.29018 -10.28909 -10.28228
 Alpha  occ. eigenvalues --  -10.28118 -10.28031 -10.27126 -10.26896 -10.26857
 Alpha  occ. eigenvalues --  -10.26333 -10.26027 -10.25984 -10.25893 -10.25733
 Alpha  occ. eigenvalues --  -10.25728 -10.25696 -10.25689 -10.25531 -10.25447
 Alpha  occ. eigenvalues --  -10.25410 -10.25248 -10.25248 -10.25191 -10.25164
 Alpha  occ. eigenvalues --   -8.06652  -8.06250  -8.05063  -8.05045  -6.03071
 Alpha  occ. eigenvalues --   -6.02660  -6.02658  -6.02283  -6.02271  -6.01880
 Alpha  occ. eigenvalues --   -6.01507  -6.01455  -6.01090  -6.01065  -6.00679
 Alpha  occ. eigenvalues --   -6.00633  -1.20103  -1.18945  -1.15732  -1.15592
 Alpha  occ. eigenvalues --   -1.11097  -1.10800  -1.05777  -1.02691  -1.01733
 Alpha  occ. eigenvalues --   -0.98991  -0.98252  -0.96137  -0.95498  -0.95192
 Alpha  occ. eigenvalues --   -0.93861  -0.93003  -0.92040  -0.88540  -0.87136
 Alpha  occ. eigenvalues --   -0.85744  -0.85670  -0.85204  -0.84428  -0.84354
 Alpha  occ. eigenvalues --   -0.84081  -0.83748  -0.82802  -0.82575  -0.81905
 Alpha  occ. eigenvalues --   -0.80924  -0.79084  -0.79016  -0.78756  -0.77237
 Alpha  occ. eigenvalues --   -0.74809  -0.72781  -0.71576  -0.71450  -0.70734
 Alpha  occ. eigenvalues --   -0.70505  -0.70082  -0.69798  -0.68487  -0.67995
 Alpha  occ. eigenvalues --   -0.66326  -0.65628  -0.64515  -0.64321  -0.63604
 Alpha  occ. eigenvalues --   -0.63255  -0.62693  -0.62487  -0.62285  -0.61294
 Alpha  occ. eigenvalues --   -0.60520  -0.59479  -0.58864  -0.57612  -0.57373
 Alpha  occ. eigenvalues --   -0.56840  -0.56761  -0.56194  -0.55941  -0.55164
 Alpha  occ. eigenvalues --   -0.55057  -0.54999  -0.54499  -0.54100  -0.53508
 Alpha  occ. eigenvalues --   -0.53091  -0.52887  -0.52762  -0.52575  -0.52338
 Alpha  occ. eigenvalues --   -0.51846  -0.51428  -0.51380  -0.50719  -0.50605
 Alpha  occ. eigenvalues --   -0.50440  -0.50260  -0.50084  -0.49881  -0.49340
 Alpha  occ. eigenvalues --   -0.49318  -0.48712  -0.48561  -0.48176  -0.47987
 Alpha  occ. eigenvalues --   -0.47762  -0.47238  -0.46976  -0.46623  -0.46447
 Alpha  occ. eigenvalues --   -0.46205  -0.46102  -0.45952  -0.45459  -0.45230
 Alpha  occ. eigenvalues --   -0.44870  -0.44381  -0.44152  -0.43972  -0.43801
 Alpha  occ. eigenvalues --   -0.43487  -0.43098  -0.43065  -0.42843  -0.42231
 Alpha  occ. eigenvalues --   -0.41765  -0.41504  -0.41067  -0.40952  -0.40334
 Alpha  occ. eigenvalues --   -0.40257  -0.40204  -0.40022  -0.39826  -0.39341
 Alpha  occ. eigenvalues --   -0.39039  -0.38108  -0.37561  -0.35885  -0.35195
 Alpha  occ. eigenvalues --   -0.34785  -0.33657  -0.33289  -0.32910  -0.32297
 Alpha  occ. eigenvalues --   -0.32205  -0.31979  -0.31902  -0.30989  -0.29382
 Alpha  occ. eigenvalues --   -0.28174  -0.24868  -0.22642
 Alpha virt. eigenvalues --   -0.08269  -0.03819  -0.02018   0.01017   0.01513
 Alpha virt. eigenvalues --    0.02365   0.02904   0.03132   0.03359   0.03479
 Alpha virt. eigenvalues --    0.04118   0.05395   0.05577   0.06466   0.06499

 Mulliken charges:
               1
     1  C   -0.268980
     2  C   -0.002625
     3  C   -0.179953
     4  C   -0.190738
     5  S    0.309486
     6  C   -0.279189
     7  C   -0.014220
     8  C   -0.089656
     9  C   -0.123085
    10  C    0.178768
    11  N   -0.488733
    12  C    0.037962
    13  C   -0.063295
    14  H    0.114236
    15  C   -0.140486
    16  C    0.159178
    17  C   -0.092232
    18  C   -0.058758
    19  H    0.118767
    20  H    0.116926
    21  O   -0.342340
    22  C   -0.148789
    23  H    0.115441
    24  H    0.115383
    25  H    0.136478
    26  H    0.116714
    27  C    0.036915
    28  C   -0.059048
    29  C   -0.140083
    30  C    0.159099
    31  C   -0.094042
    32  C   -0.062637
    33  H    0.116033
    34  H    0.115985
    35  O   -0.342566
    36  C   -0.148346
    37  H    0.115183
    38  H    0.114450
    39  H    0.136448
    40  H    0.116601
    41  H    0.116667
    42  C   -0.117973
    43  C   -0.053192
    44  H    0.101482
    45  H    0.126472
    46  H    0.128409
    47  H    0.113841
    48  C    0.009700
    49  C    0.010282
    50  H    0.104485
    51  S    0.352910
    52  C   -0.249627
    53  C   -0.000758
    54  H    0.116250
    55  C   -0.177804
    56  S    0.343859
    57  C   -0.347880
    58  C   -0.062862
    59  C   -0.013736
    60  C    0.056045
    61  C   -0.380285
    62  S    0.385747
    63  C    0.444181
    64  O   -0.330764
    65  O   -0.330932
    66  C   -0.123953
    67  H    0.129206
    68  H    0.131544
    69  H    0.134747
    70  H    0.144765
    71  C    0.024709
    72  C   -0.197309
    73  C    0.030589
    74  N   -0.182329
    75  C    0.413029
    76  O   -0.301139
    77  H    0.244926
    78  O   -0.277487
    79  H    0.115489
    80  C   -0.222064
    81  H    0.127525
    82  H    0.112669
    83  H    0.115097
    84  C   -0.220754
    85  H    0.128583
    86  H    0.114448
    87  H    0.112941
 Sum of Mulliken charges =  -0.00000

 Dipole moment (field-independent basis, Debye):
    X=             14.9283    Y=             -3.1180    Z=              5.9883  Tot=             16.3840
 Quadrupole moment (field-independent basis, Debye-Ang):
   XX=           -446.8675   YY=           -302.4950   ZZ=           -349.7961
   XY=             -0.9224   XZ=            -25.7168   YZ=             -2.4362

 Normal termination of Gaussian 16 at Fri Jun 11 06:01:42 2021.
