 Gaussian 16, Revision B.01,
 Gaussian 16:  ES64L-G16RevB.01 20-Dec-2017

 ------------------------
 #N B3LYP/6-311G(d,p) OPT
 ------------------------

 ------------
 C61H46O6N4S3
 ------------
 Symbolic Z-matrix:
 Charge =  0 Multiplicity = 1

 SCF Done:  E(RB3LYP) =  -2574.97877340     A.U. after   16 cycles
 SCF Done:  E(RB3LYP) =  -2575.03212270     A.U. after   13 cycles
 SCF Done:  E(RB3LYP) =  -2575.05999081     A.U. after   14 cycles
 SCF Done:  E(RB3LYP) =  -2575.06968319     A.U. after   15 cycles
 SCF Done:  E(RB3LYP) =  -2575.07478709     A.U. after   13 cycles
 SCF Done:  E(RB3LYP) =  -2575.07598218     A.U. after   16 cycles
 SCF Done:  E(RB3LYP) =  -2575.07801213     A.U. after   13 cycles
 SCF Done:  E(RB3LYP) =  -2575.07938628     A.U. after   12 cycles
 SCF Done:  E(RB3LYP) =  -2575.08098292     A.U. after   13 cycles
 SCF Done:  E(RB3LYP) =  -2575.08124946     A.U. after   15 cycles
 SCF Done:  E(RB3LYP) =  -2575.08499376     A.U. after   10 cycles
 SCF Done:  E(RB3LYP) =  -2575.08499499     A.U. after    9 cycles
 SCF Done:  E(RB3LYP) =  -2575.08499524     A.U. after   10 cycles
 SCF Done:  E(RB3LYP) =  -2575.08499544     A.U. after   10 cycles
 SCF Done:  E(RB3LYP) =  -2575.08499561     A.U. after   10 cycles
 SCF Done:  E(RB3LYP) =  -2575.08499565     A.U. after    8 cycles
 SCF Done:  E(RB3LYP) =  -2575.08499567     A.U. after    8 cycles
 SCF Done:  E(RB3LYP) =  -2575.08499568     A.U. after    8 cycles
 SCF Done:  E(RB3LYP) =  -2575.08499567     A.U. after    7 cycles
 SCF Done:  E(RB3LYP) =  -2575.08499567     A.U. after    6 cycles
 Optimization completed.
    -- Stationary point found.

                         Standard orientation:
 ---------------------------------------------------------------------
 Center     Atomic      Atomic             Coordinates (Angstroms)
 Number     Number       Type             X           Y           Z
 ---------------------------------------------------------------------
      1          8           0       -2.277494   -3.150538   -0.029287
      2          6           0       -2.767121   -2.050323   -0.019806
      3          6           0       -2.047548   -0.768190   -0.055313
      4          6           0       -0.616190   -0.900127   -0.096590
      5          6           0        0.386373    0.031981   -0.126590
      6          6           0        0.114115    1.432836   -0.082303
      7          7           0       -0.094701    2.570413   -0.042842
      8          6           0        1.793879   -0.353010   -0.204344
      9         16           0        3.058336    0.825267    0.066152
     10          6           0        2.341682   -1.595201   -0.465275
     11          6           0        3.747813   -1.605165   -0.447235
     12          6           0        4.312875   -0.372325   -0.179728
     13          6           0        5.703405   -0.014099   -0.101756
     14          6           0        6.261897    1.256463   -0.008415
     15          6           0        7.659869    1.260229    0.044713
     16          6           0        8.224504   -0.009229   -0.006564
     17          6           0        9.576775   -0.447195    0.014073
     18          6           0       10.731815    0.278103    0.101277
     19          6           0       10.776301    1.691933    0.191800
     20          7           0       10.879370    2.844160    0.267754
     21          6           0       12.031040   -0.475534    0.100338
     22          8           0       13.157441    0.264939    0.188199
     23          8           0       12.088817   -1.674265    0.026097
     24         16           0        6.954086   -1.224840   -0.112572
     25          6           0       -2.789293    0.396867   -0.049458
     26          6           0       -4.198113    0.396182   -0.004325
     27          6           0       -4.968807    1.577068    0.003236
     28          6           0       -6.339469    1.556101    0.005010
     29          6           0       -7.016164    0.280593   -0.013356
     30          7           0       -8.378816    0.251318   -0.144546
     31          6           0       -9.113583   -1.007838   -0.189878
     32          6           0       -8.436975   -2.057729    0.663909
     33          6           0       -6.969386   -2.303641    0.262107
     34          6           0       -6.357565   -3.157977    1.399924
     35          6           0       -6.901812   -3.096825   -1.062893
     36          6           0       -9.194935    1.423954   -0.464637
     37          6           0       -8.370468    2.626566   -0.886772
     38          6           0       -7.163453    2.844059    0.044282
     39          6           0       -6.383315    4.071378   -0.455843
     40          6           0       -7.629099    3.112226    1.495781
     41          6           0       -6.272845   -0.937420    0.107668
     42          6           0       -4.885029   -0.833198    0.049158
     43          8           0       -4.157305   -1.988447    0.025039
     44          1           0       -0.300013   -1.936753   -0.099871
     45          1           0        1.747714   -2.471346   -0.684807
     46          1           0        4.337316   -2.490391   -0.648622
     47          1           0        5.662953    2.157301    0.007406
     48          1           0        8.248344    2.164023    0.111539
     49          1           0        9.751168   -1.518556   -0.046703
     50          1           0       12.956081    1.209662    0.241459
     51          1           0       -2.291957    1.357739   -0.078059
     52          1           0       -4.438755    2.520672    0.000610
     53          1           0       -9.216626   -1.343703   -1.231765
     54          1           0      -10.124321   -0.815086    0.182063
     55          1           0       -8.992367   -2.997615    0.598651
     56          1           0       -8.473991   -1.733278    1.709480
     57          1           0       -7.014493   -4.011623    1.593984
     58          1           0       -6.282003   -2.578552    2.324430
     59          1           0       -5.371833   -3.540507    1.150660
     60          1           0       -7.411688   -4.059306   -0.951682
     61          1           0       -5.865961   -3.294537   -1.340183
     62          1           0       -7.372725   -2.555559   -1.887509
     63          1           0       -9.821426    1.668648    0.403115
     64          1           0       -9.879218    1.143544   -1.273412
     65          1           0       -9.014206    3.511355   -0.893901
     66          1           0       -8.003646    2.484938   -1.908659
     67          1           0       -5.987608    3.913710   -1.462626
     68          1           0       -5.551083    4.328426    0.203160
     69          1           0       -7.048132    4.939157   -0.485828
     70          1           0       -8.159761    2.259497    1.924449
     71          1           0       -8.292776    3.982337    1.533252
     72          1           0       -6.767424    3.315162    2.135983
 ---------------------------------------------------------------------

 The electronic state is 1-A.
 Alpha  occ. eigenvalues --  -88.90077 -88.89685 -19.19348 -19.16644 -19.11136
 Alpha  occ. eigenvalues --  -19.10444 -14.36941 -14.32705 -14.32288 -10.31441
 Alpha  occ. eigenvalues --  -10.31212 -10.26597 -10.25641 -10.24743 -10.23892
 Alpha  occ. eigenvalues --  -10.23627 -10.23548 -10.23484 -10.23458 -10.23153
 Alpha  occ. eigenvalues --  -10.23129 -10.22803 -10.22569 -10.22166 -10.21741
 Alpha  occ. eigenvalues --  -10.21601 -10.21555 -10.21136 -10.21114 -10.20738
 Alpha  occ. eigenvalues --  -10.20267 -10.20230 -10.20218 -10.20154 -10.20092
 Alpha  occ. eigenvalues --  -10.19900 -10.19744 -10.19711 -10.19111 -10.18094
 Alpha  occ. eigenvalues --  -10.17977 -10.17012 -10.16393  -7.98727  -7.98318
 Alpha  occ. eigenvalues --   -5.95025  -5.94654  -5.94625  -5.94299  -5.94244
 Alpha  occ. eigenvalues --   -5.93884  -1.12965  -1.10874  -1.04474  -1.02752
 Alpha  occ. eigenvalues --   -0.99538  -0.93124  -0.92976  -0.92226  -0.90428
 Alpha  occ. eigenvalues --   -0.88868  -0.86727  -0.86355  -0.84669  -0.83721
 Alpha  occ. eigenvalues --   -0.82228  -0.79337  -0.78958  -0.77939  -0.77203
 Alpha  occ. eigenvalues --   -0.76025  -0.75815  -0.73616  -0.72574  -0.71153
 Alpha  occ. eigenvalues --   -0.70730  -0.69923  -0.68324  -0.67660  -0.66161
 Alpha  occ. eigenvalues --   -0.65406  -0.65020  -0.62971  -0.62784  -0.62257
 Alpha  occ. eigenvalues --   -0.60145  -0.59976  -0.57903  -0.56998  -0.56221
 Alpha  occ. eigenvalues --   -0.55807  -0.55159  -0.54572  -0.54208  -0.52906
 Alpha  occ. eigenvalues --   -0.52095  -0.51259  -0.50400  -0.49093  -0.48886
 Alpha  occ. eigenvalues --   -0.48340  -0.48292  -0.47712  -0.47204  -0.46527
 Alpha  occ. eigenvalues --   -0.46012  -0.45997  -0.45680  -0.44964  -0.44841
 Alpha  occ. eigenvalues --   -0.44697  -0.44444  -0.44292  -0.43756  -0.43521
 Alpha  occ. eigenvalues --   -0.42773  -0.42319  -0.42202  -0.41887  -0.41730
 Alpha  occ. eigenvalues --   -0.41350  -0.41188  -0.40634  -0.40407  -0.40184
 Alpha  occ. eigenvalues --   -0.39402  -0.39351  -0.39245  -0.38990  -0.38842
 Alpha  occ. eigenvalues --   -0.38466  -0.38188  -0.38048  -0.37870  -0.37723
 Alpha  occ. eigenvalues --   -0.37415  -0.37009  -0.36582  -0.36407  -0.36126
 Alpha  occ. eigenvalues --   -0.35939  -0.35139  -0.34604  -0.34471  -0.33902
 Alpha  occ. eigenvalues --   -0.33662  -0.33424  -0.32948  -0.32469  -0.31462
 Alpha  occ. eigenvalues --   -0.29324  -0.29176  -0.28597  -0.28475  -0.27676
 Alpha  occ. eigenvalues --   -0.26266  -0.25518  -0.22845  -0.20238
 Alpha virt. eigenvalues --   -0.11708  -0.09835  -0.05544  -0.03824  -0.02332
 Alpha virt. eigenvalues --   -0.01299  -0.00758  -0.00642   0.00512   0.00967
 Alpha virt. eigenvalues --    0.01019   0.01509   0.01971   0.02837   0.04032

 Mulliken charges:
               1
     1  O   -0.324056
     2  C    0.442334
     3  C   -0.339666
     4  C    0.026843
     5  C    0.060508
     6  C   -0.004146
     7  N   -0.244928
     8  C   -0.273790
     9  S    0.364795
    10  C   -0.031562
    11  C   -0.036847
    12  C   -0.241715
    13  C   -0.187663
    14  C   -0.047983
    15  C    0.003116
    16  C   -0.289008
    17  C    0.069429
    18  C   -0.191651
    19  C   -0.015291
    20  N   -0.236844
    21  C    0.459031
    22  O   -0.301270
    23  O   -0.320236
    24  S    0.338572
    25  C    0.171433
    26  C   -0.173979
    27  C   -0.025891
    28  C   -0.053205
    29  C    0.394683
    30  N   -0.536901
    31  C   -0.013712
    32  C   -0.213869
    33  C   -0.237387
    34  C   -0.242152
    35  C   -0.212077
    36  C   -0.018536
    37  C   -0.202901
    38  C   -0.273895
    39  C   -0.247666
    40  C   -0.209508
    41  C   -0.085283
    42  C    0.265468
    43  O   -0.348323
    44  H    0.128122
    45  H    0.112648
    46  H    0.113413
    47  H    0.120014
    48  H    0.137276
    49  H    0.134232
    50  H    0.255260
    51  H    0.134523
    52  H    0.097268
    53  H    0.124032
    54  H    0.122240
    55  H    0.120050
    56  H    0.123905
    57  H    0.099116
    58  H    0.103896
    59  H    0.145924
    60  H    0.103172
    61  H    0.136157
    62  H    0.095684
    63  H    0.127629
    64  H    0.126080
    65  H    0.119845
    66  H    0.126367
    67  H    0.117971
    68  H    0.115802
    69  H    0.110356
    70  H    0.111954
    71  H    0.106812
    72  H    0.115980
 Sum of Mulliken charges =  -0.00000

 Dipole moment (field-independent basis, Debye):
    X=            -17.1733    Y=              1.3045    Z=             -0.7069  Tot=             17.2372
 Quadrupole moment (field-independent basis, Debye-Ang):
   XX=           -281.9896   YY=           -280.4905   ZZ=           -268.5267
   XY=             -7.3315   XZ=              0.7914   YZ=              0.4175

 Normal termination of Gaussian 16 at Wed Aug  4 02:25:06 2021.
