 Gaussian 16, Revision B.01,
 Gaussian 16:  ES64L-G16RevB.01 20-Dec-2017

 ------------------------------------
 #N TD(NStates=10) PBE1PBE/6-31G(d,p)
 ------------------------------------

 ----
 Name
 ----
 Symbolic Z-matrix:
 Charge =  0 Multiplicity = 1

                         Standard orientation:
 ---------------------------------------------------------------------
 Center     Atomic      Atomic             Coordinates (Angstroms)
 Number     Number       Type             X           Y           Z
 ---------------------------------------------------------------------
      1          6           0        7.854865    6.024058    0.403487
      2          8           0        6.930098    5.445576   -0.507285
      3          6           0        6.551439    4.151509   -0.314600
      4          6           0        7.013084    3.328698    0.716028
      5          6           0        6.548922    2.017843    0.819648
      6          6           0        5.639310    1.501770   -0.102244
      7          7           0        5.195402    0.146676   -0.004616
      8          6           0        3.831426   -0.166409   -0.016121
      9          6           0        3.376849   -1.423317   -0.463194
     10          6           0        2.028745   -1.730473   -0.469197
     11          6           0        1.058040   -0.808007   -0.035304
     12          6           0        1.519446    0.446258    0.403126
     13          6           0        2.865936    0.763307    0.416735
     14          1           0        3.182701    1.731893    0.780526
     15          1           0        0.810972    1.178648    0.774162
     16          6           0       -0.355386   -1.156756   -0.040233
     17         16           0       -1.598290    0.071945   -0.059677
     18          6           0       -2.889919   -1.128032   -0.041858
     19          6           0       -2.339225   -2.399356   -0.041965
     20          6           0       -0.933701   -2.413395   -0.039446
     21          1           0       -0.351646   -3.324188   -0.004324
     22          1           0       -2.952581   -3.286838   -0.029235
     23          6           0       -4.274635   -0.725308   -0.027824
     24          6           0       -4.663327    0.611667    0.041976
     25          6           0       -5.998093    1.048696    0.058794
     26          6           0       -7.081872    0.178411    0.008897
     27          6           0       -6.743828   -1.219490   -0.067869
     28          6           0       -5.365060   -1.673476   -0.086099
     29          7           0       -5.257420   -3.000011   -0.162402
     30         16           0       -6.774991   -3.613123   -0.206354
     31          7           0       -7.627557   -2.214635   -0.131885
     32          6           0       -8.479634    0.528438    0.026300
     33          6           0       -9.115721    1.732156    0.098297
     34          6           0       -8.432816    2.976899    0.214181
     35          7           0       -7.859740    3.978005    0.290750
     36          6           0      -10.612934    1.843960    0.167833
     37          8           0      -11.170170    2.794364    0.639908
     38          8           0      -11.326407    0.795559   -0.320491
     39          1           0      -10.764773    0.217454   -0.849414
     40          1           0       -9.119864   -0.348824    0.005237
     41          1           0       -6.169390    2.114206    0.118876
     42          1           0       -3.896732    1.375424    0.092792
     43          1           0        1.717481   -2.694805   -0.853227
     44          1           0        4.091832   -2.151590   -0.822929
     45          6           0        6.182485   -0.880510    0.109488
     46          6           0        7.243138   -0.949132   -0.792860
     47          6           0        8.226109   -1.931155   -0.674294
     48          6           0        8.146178   -2.876241    0.351647
     49          6           0        7.080856   -2.813495    1.259788
     50          6           0        6.119176   -1.823881    1.145719
     51          1           0        5.306643   -1.776838    1.861042
     52          1           0        7.039224   -3.545811    2.056842
     53          8           0        9.042096   -3.882022    0.555863
     54          6           0       10.140418   -4.002717   -0.337475
     55          1           0        9.804647   -4.183713   -1.364656
     56          1           0       10.777211   -3.111220   -0.314833
     57          1           0       10.712574   -4.861240    0.009852
     58          1           0        9.036138   -1.951624   -1.390748
     59          1           0        7.307425   -0.223104   -1.594546
     60          6           0        5.191810    2.330782   -1.141623
     61          6           0        5.633098    3.639345   -1.240941
     62          1           0        5.292087    4.286042   -2.040189
     63          1           0        4.491923    1.941314   -1.871452
     64          1           0        6.906439    1.386992    1.624756
     65          1           0        7.721313    3.693910    1.447422
     66          1           0        8.009898    7.045443    0.060366
     67          1           0        7.455829    6.042205    1.423759
     68          1           0        8.812336    5.491153    0.396740
 ---------------------------------------------------------------------

 SCF Done:  E(RPBE1PBE) =  -2623.95034650     A.U. after   19 cycles

 Excitation energies and oscillator strengths:

 Excited State   1:      Singlet-A      1.7403 eV  712.42 nm  f=0.6730  <S**2>=0.000
     160 ->161         0.70685
 This state for optimization and/or second-order correction.
 Total Energy, E(TD-HF/TD-DFT) =  -2623.88639095
 Copying the excited state density for this state as the 1-particle RhoCI density.

 Excited State   2:      Singlet-A      2.5389 eV  488.34 nm  f=0.3422  <S**2>=0.000
     159 ->161         0.68625
     160 ->162         0.11733

 Excited State   3:      Singlet-A      2.9189 eV  424.76 nm  f=0.3399  <S**2>=0.000
     159 ->161        -0.11998
     159 ->162        -0.11083
     160 ->162         0.67575
     160 ->163         0.10854

 Excited State   4:      Singlet-A      3.2508 eV  381.39 nm  f=0.0042  <S**2>=0.000
     158 ->161         0.70008

 Excited State   5:      Singlet-A      3.3157 eV  373.94 nm  f=0.1575  <S**2>=0.000
     157 ->161         0.58123
     160 ->163         0.36339

 Excited State   6:      Singlet-A      3.4358 eV  360.86 nm  f=0.3144  <S**2>=0.000
     154 ->161        -0.11563
     157 ->161        -0.31597
     159 ->162        -0.19205
     160 ->162        -0.13762
     160 ->163         0.55417

 Excited State   7:      Singlet-A      3.5728 eV  347.02 nm  f=0.0188  <S**2>=0.000
     154 ->161         0.49821
     156 ->161         0.41540
     159 ->162        -0.23051

 Excited State   8:      Singlet-A      3.7015 eV  334.95 nm  f=0.1411  <S**2>=0.000
     156 ->161         0.21413
     157 ->161        -0.18492
     159 ->162         0.58901
     160 ->163         0.16503

 Excited State   9:      Singlet-A      3.7534 eV  330.32 nm  f=0.0116  <S**2>=0.000
     153 ->161         0.23194
     154 ->161        -0.36003
     155 ->161         0.11040
     156 ->161         0.40965
     159 ->162        -0.10803
     160 ->164         0.32763

 Excited State  10:      Singlet-A      3.8448 eV  322.47 nm  f=0.0161  <S**2>=0.000
     153 ->161        -0.12901
     154 ->161         0.16756
     156 ->161        -0.26663
     160 ->164         0.60264

 The electronic state is 1-A.
 Alpha  occ. eigenvalues --  -89.14586 -89.07734 -19.27450 -19.26758 -19.26666
 Alpha  occ. eigenvalues --  -19.21300 -14.45646 -14.45436 -14.44496 -14.40018
 Alpha  occ. eigenvalues --  -10.37486 -10.31405 -10.31273 -10.30727 -10.30652
 Alpha  occ. eigenvalues --  -10.29765 -10.29690 -10.29627 -10.29537 -10.29525
 Alpha  occ. eigenvalues --  -10.29518 -10.29446 -10.29004 -10.28355 -10.28301
 Alpha  occ. eigenvalues --  -10.28190 -10.27832 -10.27436 -10.26840 -10.26174
 Alpha  occ. eigenvalues --  -10.25639 -10.25352 -10.25294 -10.25216 -10.25157
 Alpha  occ. eigenvalues --  -10.25122 -10.25097 -10.25057 -10.24952 -10.24878
 Alpha  occ. eigenvalues --  -10.24590 -10.24586 -10.24555 -10.24502  -8.10868
 Alpha  occ. eigenvalues --   -8.04515  -6.04730  -6.04144  -6.03906  -5.98257
 Alpha  occ. eigenvalues --   -5.97893  -5.97517  -1.13388  -1.10373  -1.10287
 Alpha  occ. eigenvalues --   -1.06734  -1.05222  -1.00285  -0.94109  -0.93608
 Alpha  occ. eigenvalues --   -0.92795  -0.90776  -0.89195  -0.89146  -0.87345
 Alpha  occ. eigenvalues --   -0.86142  -0.82059  -0.80465  -0.79981  -0.79622
 Alpha  occ. eigenvalues --   -0.78542  -0.78419  -0.78021  -0.76956  -0.76418
 Alpha  occ. eigenvalues --   -0.74724  -0.73004  -0.71806  -0.70139  -0.67793
 Alpha  occ. eigenvalues --   -0.65903  -0.65552  -0.65103  -0.64381  -0.64135
 Alpha  occ. eigenvalues --   -0.63905  -0.62696  -0.62008  -0.60149  -0.59278
 Alpha  occ. eigenvalues --   -0.58161  -0.57545  -0.56562  -0.56503  -0.55339
 Alpha  occ. eigenvalues --   -0.54511  -0.53809  -0.53693  -0.52453  -0.51602
 Alpha  occ. eigenvalues --   -0.51256  -0.50261  -0.49192  -0.49095  -0.48770
 Alpha  occ. eigenvalues --   -0.48396  -0.47857  -0.47159  -0.47075  -0.46970
 Alpha  occ. eigenvalues --   -0.46901  -0.45810  -0.45575  -0.44999  -0.44651
 Alpha  occ. eigenvalues --   -0.44473  -0.44371  -0.44067  -0.43446  -0.43056
 Alpha  occ. eigenvalues --   -0.42838  -0.42084  -0.41261  -0.41208  -0.40870
 Alpha  occ. eigenvalues --   -0.40646  -0.40544  -0.40292  -0.40240  -0.40177
 Alpha  occ. eigenvalues --   -0.39595  -0.39068  -0.38757  -0.37920  -0.37858
 Alpha  occ. eigenvalues --   -0.37369  -0.37180  -0.36829  -0.35575  -0.35299
 Alpha  occ. eigenvalues --   -0.34808  -0.34742  -0.34621  -0.34535  -0.34061
 Alpha  occ. eigenvalues --   -0.33261  -0.32833  -0.32446  -0.31379  -0.29332
 Alpha  occ. eigenvalues --   -0.29173  -0.28401  -0.28009  -0.27549  -0.27389
 Alpha  occ. eigenvalues --   -0.27096  -0.25550  -0.24755  -0.22420  -0.19131
 Alpha virt. eigenvalues --   -0.11701  -0.06990  -0.04845  -0.02067  -0.00623
 Alpha virt. eigenvalues --   -0.00531  -0.00182  -0.00038   0.00009   0.00599
 Alpha virt. eigenvalues --    0.02283   0.02715   0.03066   0.03933   0.05242

 Mulliken charges:
               1
     1  C   -0.155665
     2  O   -0.528514
     3  C    0.352047
     4  C   -0.183451
     5  C   -0.130613
     6  C    0.193066
     7  N   -0.670977
     8  C    0.288473
     9  C   -0.158689
    10  C   -0.139134
    11  C    0.099631
    12  C   -0.172515
    13  C   -0.158235
    14  H    0.149433
    15  H    0.144535
    16  C   -0.253959
    17  S    0.328227
    18  C   -0.289570
    19  C   -0.080664
    20  C   -0.113226
    21  H    0.141301
    22  H    0.174450
    23  C    0.201806
    24  C   -0.222399
    25  C   -0.162571
    26  C    0.095328
    27  C    0.180041
    28  C    0.207611
    29  N   -0.594225
    30  S    0.619008
    31  N   -0.598004
    32  C   -0.109032
    33  C   -0.066406
    34  C    0.322042
    35  N   -0.497429
    36  C    0.632919
    37  O   -0.428838
    38  O   -0.503202
    39  H    0.335914
    40  H    0.161697
    41  H    0.176145
    42  H    0.160469
    43  H    0.131565
    44  H    0.147697
    45  C    0.192651
    46  C   -0.130425
    47  C   -0.183595
    48  C    0.351702
    49  C   -0.165218
    50  C   -0.123735
    51  H    0.145570
    52  H    0.144362
    53  O   -0.528900
    54  C   -0.155542
    55  H    0.139289
    56  H    0.138830
    57  H    0.158277
    58  H    0.131983
    59  H    0.143904
    60  C   -0.123746
    61  C   -0.164871
    62  H    0.145220
    63  H    0.145771
    64  H    0.143459
    65  H    0.132013
    66  H    0.158690
    67  H    0.139834
    68  H    0.138394
 Sum of Mulliken charges =  -0.00000

 Dipole moment (field-independent basis, Debye):
    X=             13.8113    Y=             -5.5538    Z=             -1.6319  Tot=             14.9753
 Quadrupole moment (field-independent basis, Debye-Ang):
   XX=           -290.1260   YY=           -260.5750   ZZ=           -261.3063
   XY=             62.5902   XZ=             16.5675   YZ=              5.1372

 Normal termination of Gaussian 16 at Thu Jul  8 11:47:23 2021.
