 Gaussian 09, Revision D.01,
 Gaussian 09:  ES64L-G09RevD.01 24-Apr-2013

 ------------------------------------------
 #N B3LYP/6-311G(d,p) OPT Geom=Connectivity
 ------------------------------------------

 -----------
 C88H68O8N6S
 -----------
 Symbolic Z-matrix:
 Charge =  0 Multiplicity = 1

 SCF Done:  E(RB3LYP) =  -4261.11453732     A.U. after   19 cycles
 SCF Done:  E(RB3LYP) =  -4261.26892235     A.U. after   14 cycles
 SCF Done:  E(RB3LYP) =  -4261.43006622     A.U. after   15 cycles
 SCF Done:  E(RB3LYP) =  -4261.49736837     A.U. after   15 cycles
 SCF Done:  E(RB3LYP) =  -4261.53233200     A.U. after   14 cycles
 SCF Done:  E(RB3LYP) =  -4261.55553569     A.U. after   16 cycles
 SCF Done:  E(RB3LYP) =  -4261.57052810     A.U. after   14 cycles
 SCF Done:  E(RB3LYP) =  -4261.57842987     A.U. after   16 cycles
 SCF Done:  E(RB3LYP) =  -4261.57926884     A.U. after   16 cycles
 SCF Done:  E(RB3LYP) =  -4261.58224913     A.U. after   13 cycles
 SCF Done:  E(RB3LYP) =  -4261.59666364     A.U. after   10 cycles
 SCF Done:  E(RB3LYP) =  -4261.59666718     A.U. after   10 cycles
 SCF Done:  E(RB3LYP) =  -4261.59667153     A.U. after   12 cycles
 SCF Done:  E(RB3LYP) =  -4261.59667546     A.U. after   12 cycles
 SCF Done:  E(RB3LYP) =  -4261.59667810     A.U. after   10 cycles
 SCF Done:  E(RB3LYP) =  -4261.59667946     A.U. after   10 cycles
 SCF Done:  E(RB3LYP) =  -4261.59667984     A.U. after    8 cycles
 SCF Done:  E(RB3LYP) =  -4261.59668012     A.U. after    9 cycles
 SCF Done:  E(RB3LYP) =  -4261.59668018     A.U. after    6 cycles
 SCF Done:  E(RB3LYP) =  -4261.59668021     A.U. after    6 cycles
 Optimization completed.
    -- Stationary point found.

                         Standard orientation:
 ---------------------------------------------------------------------
 Center     Atomic      Atomic             Coordinates (Angstroms)
 Number     Number       Type             X           Y           Z
 ---------------------------------------------------------------------
      1          7           0       -7.909998    1.253969    0.142774
      2          6           0       -6.574396    1.683095    0.071958
      3          6           0       -6.224716    3.020085    0.336904
      4          6           0       -4.905762    3.432674    0.271831
      5          6           0       -3.864764    2.547807   -0.070616
      6          6           0       -4.223248    1.209454   -0.333163
      7          6           0       -5.539841    0.789367   -0.261587
      8          6           0       -8.380227    0.190077   -0.684328
      9          6           0       -8.139772    0.186767   -2.058668
     10          6           0       -8.603813   -0.849372   -2.868563
     11          6           0       -9.342969   -1.893833   -2.307784
     12          6           0       -9.597928   -1.889730   -0.930465
     13          6           0       -9.116110   -0.867613   -0.130167
     14          6           0       -8.839962    1.896087    1.014106
     15          6           0       -8.530097    2.104237    2.367058
     16          6           0       -9.438078    2.716094    3.214291
     17          6           0      -10.693327    3.119209    2.739834
     18          6           0      -11.016552    2.904664    1.398167
     19          6           0      -10.088232    2.306347    0.546330
     20          1           0       -6.995209    3.733982    0.597669
     21          1           0       -4.680164    4.468964    0.498303
     22          6           0       -2.484840    2.999872   -0.162535
     23          1           0       -3.447475    0.499094   -0.580148
     24          1           0       -5.776883   -0.247270   -0.464487
     25          1           0       -7.577801    0.999546   -2.503043
     26          1           0       -8.394282   -0.819678   -3.929304
     27          8           0       -9.854190   -2.949249   -3.004504
     28          1           0      -10.167946   -2.708999   -0.509386
     29          1           0       -9.311809   -0.878149    0.935373
     30          1           0       -7.568412    1.783124    2.749042
     31          1           0       -9.205337    2.879494    4.259556
     32          8           0      -11.517579    3.699883    3.657963
     33          1           0      -11.976525    3.204572    0.999999
     34          1           0      -10.343805    2.149938   -0.494819
     35          6           0       -1.282906    2.275618   -0.145620
     36          6           0       -0.106285    3.094768   -0.254457
     37          6           0       -0.377809    4.465497   -0.378134
     38         16           0       -2.112078    4.686524   -0.348304
     39          6           0        0.510252    5.603729   -0.504058
     40          6           0        0.009050    6.901710   -0.752363
     41          6           0        0.855298    7.984156   -0.867519
     42          6           0        2.256297    7.847595   -0.747145
     43          6           0        2.757878    6.550732   -0.496866
     44          6           0        1.913568    5.464646   -0.378821
     45          6           0        3.049220    9.041705   -0.889289
     46          6           0        4.395302    9.263865   -0.849832
     47          6           0        4.853720   10.666798   -1.041589
     48          8           0        4.127155   11.615023   -1.227708
     49          8           0        6.198576   10.777918   -0.985469
     50          7           0       -1.180821    0.924115   -0.077108
     51          7           0        1.127368    2.531332   -0.177907
     52          1           0       -1.057401    7.059955   -0.863452
     53          1           0        0.437961    8.966785   -1.060452
     54          1           0        3.821422    6.390273   -0.388936
     55          1           0        2.321048    4.484156   -0.181458
     56          1           0        2.480519    9.951504   -1.063693
     57          6           0        5.380494    8.258469   -0.643924
     58          1           0        6.401526   11.715065   -1.118375
     59          7           0        6.178366    7.437573   -0.477745
     60          6           0        0.017807    0.382125   -0.067225
     61          6           0        1.218367    1.224560   -0.043972
     62          6           0        0.056625   -1.099400   -0.126094
     63          6           0        0.956540   -1.795424   -0.945936
     64          6           0        2.863736   -0.298821    1.121652
     65          6           0        2.584582    0.693890    0.170991
     66          6           0        3.670141    1.260211   -0.515054
     67          6           0        4.970473    0.843827   -0.283801
     68          6           0        5.246095   -0.152584    0.671381
     69          6           0        4.162712   -0.711566    1.373495
     70          6           0        0.919234   -3.177455   -1.048123
     71          6           0       -0.022731   -3.928770   -0.323172
     72          6           0       -0.932293   -3.234188    0.494408
     73          6           0       -0.893412   -1.851338    0.580366
     74          1           0        3.481502    2.047183   -1.234934
     75          1           0        5.785583    1.299183   -0.831124
     76          1           0        4.345649   -1.475231    2.118017
     77          1           0        1.626466   -3.684753   -1.691361
     78          1           0       -1.675201   -3.785834    1.056155
     79          1           0       -1.616368   -1.332629    1.198018
     80          6           0      -12.804301    4.127650    3.235893
     81          6           0       -9.635946   -3.002584   -4.406606
     82          1           0      -13.281069    4.551523    4.118122
     83          1           0      -12.737793    4.895873    2.457164
     84          1           0      -13.406274    3.289106    2.867632
     85          1           0      -10.080230   -2.140066   -4.916237
     86          1           0       -8.567796   -3.054710   -4.646325
     87          1           0      -10.125273   -3.912775   -4.749452
     88          7           0        6.563324   -0.570972    0.920009
     89          6           0        7.321587   -1.100438   -1.356308
     90          6           0        7.553652   -0.523181   -0.107812
     91          6           0        8.792325    0.090731    0.127426
     92          6           0        9.765096    0.120671   -0.857495
     93          6           0        9.521054   -0.447919   -2.114088
     94          6           0        8.288091   -1.056718   -2.360896
     95          1           0        8.070818   -1.509849   -3.318708
     96          1           0        8.986667    0.543822    1.092135
     97          1           0        6.371857   -1.584646   -1.550533
     98          8           0       10.539567   -0.355970   -3.016430
     99          1           0       10.723176    0.595135   -0.683532
    100          6           0        7.636035   -2.272704    2.322719
    101          6           0        6.944038   -1.068002    2.202916
    102          6           0        6.655859   -0.341124    3.368280
    103          6           0        7.036569   -0.818062    4.610975
    104          6           0        7.736310   -2.026623    4.724127
    105          6           0        8.041139   -2.750216    3.569198
    106          1           0        6.128406    0.602131    3.290872
    107          1           0        7.869710   -2.842158    1.431142
    108          8           0        8.073392   -2.402074    5.991536
    109          1           0        6.818245   -0.261965    5.514580
    110          6           0       10.345412   -0.901550   -4.312771
    111          1           0       11.267560   -0.707872   -4.858250
    112          1           0       10.170051   -1.982760   -4.272741
    113          1           0        9.510267   -0.417634   -4.831847
    114          7           0       -0.054765   -5.332532   -0.413582
    115          6           0        1.279144   -7.052159   -1.552673
    116          6           0        0.357301   -5.996338   -1.607602
    117          6           0       -0.154800   -5.623844   -2.850921
    118          6           0        0.249857   -6.268547   -4.019704
    119          6           0        1.164996   -7.321932   -3.952753
    120          6           0        1.670346   -7.711439   -2.705973
    121          1           0        2.381259   -8.528037   -2.670234
    122          1           0       -0.872866   -4.814547   -2.909635
    123          1           0        1.684172   -7.354748   -0.594439
    124          8           0        1.623475   -8.026860   -5.027256
    125          1           0       -0.165465   -5.948922   -4.965976
    126          6           0       -1.419636   -7.151827    0.502168
    127          6           0       -0.491734   -6.127068    0.687818
    128          6           0        0.021807   -5.915156    1.976704
    129          6           0       -0.394468   -6.695710    3.041737
    130          6           0       -1.321505   -7.727857    2.846828
    131          6           0       -1.828151   -7.956576    1.565756
    132          1           0       -2.545492   -8.744915    1.381486
    133          1           0        0.749583   -5.128930    2.137603
    134          1           0       -1.823169   -7.330594   -0.487291
    135          8           0       -1.656472   -8.444559    3.958220
    136          1           0       -0.002626   -6.536135    4.038974
    137          6           0        1.150371   -7.674134   -6.318622
    138          6           0       -2.597563   -9.499139    3.822964
    139          1           0        1.647125   -8.350299   -7.012530
    140          1           0        0.065496   -7.806402   -6.400696
    141          1           0        1.409607   -6.640270   -6.573849
    142          1           0       -2.236195  -10.276247    3.139725
    143          1           0       -3.567841   -9.130120    3.471570
    144          1           0       -2.714414   -9.923285    4.818897
    145          1           0        8.581223   -3.685783    3.622832
    146          6           0        8.785842   -3.617345    6.168906
    147          1           0        8.946590   -3.714229    7.241391
    148          1           0        8.209166   -4.477954    5.811088
    149          1           0        9.755735   -3.593587    5.659081
    150          1           0        1.697901   -1.250975   -1.517365
    151          1           0        2.056105   -0.752177    1.682584
 ---------------------------------------------------------------------

 The electronic state is 1-A.
 Alpha  occ. eigenvalues --  -88.88604 -19.16353 -19.15567 -19.15504 -19.15465
 Alpha  occ. eigenvalues --  -19.15351 -19.15073 -19.15035 -19.10396 -14.34706
 Alpha  occ. eigenvalues --  -14.34393 -14.34106 -14.31879 -14.31736 -14.29630
 Alpha  occ. eigenvalues --  -10.30583 -10.23869 -10.23790 -10.23787 -10.23642
 Alpha  occ. eigenvalues --  -10.23366 -10.23347 -10.23179 -10.23141 -10.23052
 Alpha  occ. eigenvalues --  -10.22976 -10.22967 -10.22758 -10.22711 -10.22670
 Alpha  occ. eigenvalues --  -10.22069 -10.21908 -10.21889 -10.21720 -10.21580
 Alpha  occ. eigenvalues --  -10.21386 -10.21355 -10.21275 -10.21274 -10.21211
 Alpha  occ. eigenvalues --  -10.21183 -10.21121 -10.20866 -10.20860 -10.20836
 Alpha  occ. eigenvalues --  -10.20334 -10.19754 -10.19062 -10.18811 -10.18471
 Alpha  occ. eigenvalues --  -10.18130 -10.18046 -10.18037 -10.18021 -10.18010
 Alpha  occ. eigenvalues --  -10.17994 -10.17946 -10.17940 -10.17927 -10.17926
 Alpha  occ. eigenvalues --  -10.17894 -10.17853 -10.17849 -10.17797 -10.17794
 Alpha  occ. eigenvalues --  -10.17708 -10.17648 -10.17625 -10.17621 -10.17608
 Alpha  occ. eigenvalues --  -10.17570 -10.17552 -10.17518 -10.17506 -10.17499
 Alpha  occ. eigenvalues --  -10.17493 -10.17457 -10.17449 -10.17354 -10.17300
 Alpha  occ. eigenvalues --  -10.17225 -10.17128 -10.17120 -10.17118 -10.17053
 Alpha  occ. eigenvalues --  -10.16992 -10.16962 -10.16901 -10.16899 -10.16659
 Alpha  occ. eigenvalues --  -10.16615  -7.97250  -5.93525  -5.93148  -5.92879
 Alpha  occ. eigenvalues --   -1.10987  -1.07425  -1.07358  -1.07329  -1.07210
 Alpha  occ. eigenvalues --   -1.06934  -1.06903  -1.01855  -0.98442  -0.97123
 Alpha  occ. eigenvalues --   -0.96883  -0.96587  -0.91608  -0.90035  -0.89408
 Alpha  occ. eigenvalues --   -0.87105  -0.86501  -0.86403  -0.86370  -0.86052
 Alpha  occ. eigenvalues --   -0.86009  -0.85841  -0.84565  -0.84382  -0.83971
 Alpha  occ. eigenvalues --   -0.82605  -0.78959  -0.78920  -0.77296  -0.77190
 Alpha  occ. eigenvalues --   -0.76912  -0.76850  -0.76794  -0.76030  -0.76002
 Alpha  occ. eigenvalues --   -0.75867  -0.75813  -0.75610  -0.75504  -0.75383
 Alpha  occ. eigenvalues --   -0.75104  -0.74851  -0.74767  -0.74589  -0.74361
 Alpha  occ. eigenvalues --   -0.73554  -0.72497  -0.71767  -0.70970  -0.70880
 Alpha  occ. eigenvalues --   -0.70513  -0.69177  -0.69143  -0.68881  -0.67552
 Alpha  occ. eigenvalues --   -0.66116  -0.64735  -0.63775  -0.63038  -0.62908
 Alpha  occ. eigenvalues --   -0.62807  -0.62652  -0.62472  -0.62249  -0.61917
 Alpha  occ. eigenvalues --   -0.61713  -0.61585  -0.61399  -0.60956  -0.60429
 Alpha  occ. eigenvalues --   -0.60163  -0.60033  -0.59921  -0.59640  -0.58772
 Alpha  occ. eigenvalues --   -0.57838  -0.57459  -0.57037  -0.56190  -0.54987
 Alpha  occ. eigenvalues --   -0.54921  -0.54791  -0.54691  -0.54556  -0.54494
 Alpha  occ. eigenvalues --   -0.54240  -0.53964  -0.53370  -0.53190  -0.53041
 Alpha  occ. eigenvalues --   -0.52314  -0.52076  -0.51690  -0.51284  -0.50714
 Alpha  occ. eigenvalues --   -0.49953  -0.49831  -0.49506  -0.49453  -0.48991
 Alpha  occ. eigenvalues --   -0.48693  -0.48517  -0.48172  -0.47834  -0.47786
 Alpha  occ. eigenvalues --   -0.47761  -0.47719  -0.47627  -0.47356  -0.47317
 Alpha  occ. eigenvalues --   -0.47118  -0.46693  -0.46242  -0.46028  -0.45765
 Alpha  occ. eigenvalues --   -0.45704  -0.45652  -0.45559  -0.45487  -0.45308
 Alpha  occ. eigenvalues --   -0.45269  -0.44901  -0.44565  -0.44189  -0.44091
 Alpha  occ. eigenvalues --   -0.43932  -0.43753  -0.43662  -0.43540  -0.43461
 Alpha  occ. eigenvalues --   -0.43349  -0.43181  -0.43093  -0.42985  -0.42970
 Alpha  occ. eigenvalues --   -0.42792  -0.42618  -0.42506  -0.42454  -0.42405
 Alpha  occ. eigenvalues --   -0.42201  -0.42066  -0.42032  -0.41976  -0.41489
 Alpha  occ. eigenvalues --   -0.41399  -0.41272  -0.40654  -0.40160  -0.39688
 Alpha  occ. eigenvalues --   -0.39615  -0.39393  -0.39246  -0.39128  -0.38988
 Alpha  occ. eigenvalues --   -0.38947  -0.38923  -0.38833  -0.38718  -0.38535
 Alpha  occ. eigenvalues --   -0.38437  -0.38363  -0.37976  -0.37649  -0.37462
 Alpha  occ. eigenvalues --   -0.37370  -0.37195  -0.37095  -0.36938  -0.36822
 Alpha  occ. eigenvalues --   -0.36692  -0.36492  -0.36353  -0.36303  -0.35514
 Alpha  occ. eigenvalues --   -0.35257  -0.34854  -0.34652  -0.34455  -0.34215
 Alpha  occ. eigenvalues --   -0.34045  -0.33989  -0.33761  -0.33716  -0.33626
 Alpha  occ. eigenvalues --   -0.33615  -0.33565  -0.33504  -0.33423  -0.33323
 Alpha  occ. eigenvalues --   -0.33263  -0.33097  -0.32948  -0.32514  -0.32477
 Alpha  occ. eigenvalues --   -0.31354  -0.30826  -0.30062  -0.29865  -0.29182
 Alpha  occ. eigenvalues --   -0.28078  -0.26934  -0.26872  -0.26718  -0.26602
 Alpha  occ. eigenvalues --   -0.26384  -0.26288  -0.26191  -0.26095  -0.25858
 Alpha  occ. eigenvalues --   -0.25844  -0.25689  -0.25050  -0.24530  -0.24382
 Alpha  occ. eigenvalues --   -0.24300  -0.23728  -0.23622  -0.23261  -0.22973
 Alpha  occ. eigenvalues --   -0.20604  -0.18633  -0.18005  -0.17603
 Alpha virt. eigenvalues --   -0.10111  -0.07519  -0.04078  -0.03082  -0.02902
 Alpha virt. eigenvalues --   -0.02748  -0.02411  -0.01376  -0.01262  -0.01121
 Alpha virt. eigenvalues --   -0.01006  -0.00959  -0.00914  -0.00747  -0.00555

 Mulliken charges:
               1
     1  N   -0.496488
     2  C    0.190054
     3  C   -0.118357
     4  C   -0.102811
     5  C    0.009173
     6  C   -0.022524
     7  C   -0.119493
     8  C    0.062809
     9  C   -0.060389
    10  C   -0.129656
    11  C    0.172225
    12  C   -0.087426
    13  C   -0.063432
    14  C    0.067494
    15  C   -0.060870
    16  C   -0.085720
    17  C    0.172109
    18  C   -0.130941
    19  C   -0.067980
    20  H    0.114760
    21  H    0.097642
    22  C   -0.305166
    23  H    0.122509
    24  H    0.114417
    25  H    0.107333
    26  H    0.106814
    27  O   -0.348998
    28  H    0.103879
    29  H    0.104630
    30  H    0.109068
    31  H    0.105846
    32  O   -0.348256
    33  H    0.105959
    34  H    0.104390
    35  C    0.209770
    36  C    0.228946
    37  C   -0.329534
    38  S    0.363249
    39  C    0.030217
    40  C   -0.106112
    41  C   -0.065972
    42  C   -0.083114
    43  C   -0.055896
    44  C   -0.033807
    45  C    0.052990
    46  C   -0.199156
    47  C    0.444597
    48  O   -0.344964
    49  O   -0.324369
    50  N   -0.349251
    51  N   -0.362721
    52  H    0.097721
    53  H    0.092710
    54  H    0.125335
    55  H    0.138781
    56  H    0.121789
    57  C    0.061819
    58  H    0.254781
    59  N   -0.238718
    60  C    0.141133
    61  C    0.159884
    62  C   -0.151856
    63  C   -0.035547
    64  C   -0.033841
    65  C   -0.153501
    66  C   -0.034050
    67  C   -0.107385
    68  C    0.191779
    69  C   -0.112326
    70  C   -0.108270
    71  C    0.185539
    72  C   -0.110915
    73  C   -0.035119
    74  H    0.098908
    75  H    0.119098
    76  H    0.114220
    77  H    0.112930
    78  H    0.114751
    79  H    0.097647
    80  C   -0.132515
    81  C   -0.132292
    82  H    0.130536
    83  H    0.110904
    84  H    0.110495
    85  H    0.110589
    86  H    0.110714
    87  H    0.129751
    88  N   -0.496896
    89  C   -0.057524
    90  C    0.057212
    91  C   -0.059032
    92  C   -0.085858
    93  C    0.173014
    94  C   -0.129571
    95  H    0.105204
    96  H    0.105038
    97  H    0.102737
    98  O   -0.348101
    99  H    0.105446
   100  C   -0.065653
   101  C    0.063777
   102  C   -0.057236
   103  C   -0.086144
   104  C    0.172074
   105  C   -0.131419
   106  H    0.110367
   107  H    0.102550
   108  O   -0.348594
   109  H    0.105837
   110  C   -0.132146
   111  H    0.129960
   112  H    0.108831
   113  H    0.111468
   114  N   -0.499271
   115  C   -0.063870
   116  C    0.062421
   117  C   -0.060099
   118  C   -0.130250
   119  C    0.171686
   120  C   -0.088065
   121  H    0.103503
   122  H    0.106543
   123  H    0.104184
   124  O   -0.349339
   125  H    0.105997
   126  C   -0.068214
   127  C    0.070096
   128  C   -0.061555
   129  C   -0.086040
   130  C    0.171435
   131  C   -0.130728
   132  H    0.105318
   133  H    0.107244
   134  H    0.103388
   135  O   -0.348919
   136  H    0.104818
   137  C   -0.132015
   138  C   -0.132260
   139  H    0.129777
   140  H    0.109889
   141  H    0.110432
   142  H    0.109943
   143  H    0.110765
   144  H    0.129869
   145  H    0.104999
   146  C   -0.132212
   147  H    0.129706
   148  H    0.109858
   149  H    0.110592
   150  H    0.105770
   151  H    0.106309
 Sum of Mulliken charges =   0.00000

 Dipole moment (field-independent basis, Debye):
    X=             -7.1589    Y=            -10.1778    Z=             -3.6722  Tot=             12.9739
 Quadrupole moment (field-independent basis, Debye-Ang):
   XX=           -454.1948   YY=           -520.2640   ZZ=           -482.0864
   XY=            -52.0766   XZ=              6.3937   YZ=              9.0030

 Normal termination of Gaussian 09 at Sun Jul 14 23:51:53 2019.
