 Gaussian 16, Revision B.01,
 Gaussian 16:  ES64L-G16RevB.01 20-Dec-2017

 -------------------------------------
 #N TD(NStates=10) PBE1PBE/6-311G(d,p)
 -------------------------------------

 ----
 Name
 ----
 Symbolic Z-matrix:
 Charge =  0 Multiplicity = 1

                         Standard orientation:
 ---------------------------------------------------------------------
 Center     Atomic      Atomic             Coordinates (Angstroms)
 Number     Number       Type             X           Y           Z
 ---------------------------------------------------------------------
      1          6           0       -8.182487    7.128568   -1.105953
      2          8           0       -7.424227    6.343120   -0.197444
      3          6           0       -7.594299    4.990534   -0.210206
      4          6           0       -8.469618    4.302920   -1.054202
      5          6           0       -8.556066    2.912758   -0.982790
      6          6           0       -7.794556    2.189376   -0.065242
      7          7           0       -7.914267    0.769334    0.020459
      8          6           0       -6.774216   -0.050771    0.005910
      9          6           0       -6.768593   -1.297194    0.659475
     10          6           0       -5.644102   -2.104499    0.641031
     11          6           0       -4.467692   -1.716233   -0.024144
     12          6           0       -4.478614   -0.467096   -0.667243
     13          6           0       -5.599876    0.346473   -0.658344
     14          1           0       -5.576908    1.293575   -1.181667
     15          1           0       -3.602711   -0.138034   -1.215670
     16          6           0       -3.298009   -2.590422   -0.040351
     17         16           0       -1.679247   -1.948306   -0.237981
     18          6           0       -0.956467   -3.542922   -0.138653
     19          6           0       -1.937570   -4.494386    0.044753
     20          6           0       -3.244337   -3.961437    0.093471
     21          1           0       -4.130751   -4.571350    0.204916
     22          1           0       -1.716499   -5.548000    0.153267
     23          6           0        0.466090   -3.755461   -0.253515
     24         16           0        1.625967   -2.489340    0.090960
     25          6           0        2.982405   -3.542881   -0.263590
     26          6           0        2.526680   -4.802500   -0.602800
     27          6           0        1.123658   -4.920823   -0.599690
     28          1           0        0.598595   -5.824193   -0.878894
     29          1           0        3.192024   -5.607489   -0.884805
     30          6           0        4.348203   -3.095277   -0.180959
     31          6           0        5.489847   -3.875750   -0.107659
     32          6           0        6.681322   -3.134897   -0.049206
     33          6           0        6.495056   -1.761727   -0.065502
     34         16           0        4.773393   -1.400692   -0.180140
     35          6           0        7.470840   -0.700054   -0.004172
     36          6           0        7.110588    0.645469    0.018098
     37          6           0        8.027128    1.709041    0.075048
     38          6           0        9.404895    1.522915    0.116380
     39          6           0        9.839338    0.149149    0.096587
     40          6           0        8.893835   -0.951326    0.037490
     41          7           0        9.486622   -2.145534    0.026726
     42         16           0       11.103043   -1.887273    0.087207
     43          7           0       11.109838   -0.250030    0.128721
     44          6           0       10.416144    2.547404    0.177016
     45          6           0       10.318038    3.907627    0.206239
     46          6           0        9.086736    4.624554    0.179205
     47          7           0        8.074009    5.181561    0.156275
     48          6           0       11.527344    4.770239    0.270304
     49          8           0       12.682594    4.060852    0.295141
     50          1           0       13.395218    4.714294    0.336154
     51          8           0       11.502773    5.975544    0.297992
     52          1           0       11.429221    2.163911    0.203953
     53          1           0        7.621846    2.710797    0.088106
     54          1           0        6.059098    0.905844   -0.006957
     55          1           0        7.664200   -3.574760    0.016447
     56          1           0        5.457693   -4.956156   -0.073146
     57          1           0       -5.665615   -3.041239    1.185874
     58          1           0       -7.649607   -1.620623    1.198724
     59          6           0       -9.220243    0.201134    0.115168
     60          6           0      -10.139608    0.682707    1.047013
     61          6           0      -11.428031    0.154911    1.127792
     62          6           0      -11.808286   -0.887709    0.279495
     63          6           0      -10.887142   -1.380914   -0.653708
     64          6           0       -9.616649   -0.837159   -0.741459
     65          1           0       -8.917672   -1.217857   -1.476612
     66          1           0      -11.199291   -2.182431   -1.312207
     67          8           0      -13.035193   -1.482953    0.276218
     68          6           0      -14.013089   -1.020418    1.196578
     69          1           0      -13.687246   -1.158105    2.233800
     70          1           0      -14.254822    0.035405    1.029631
     71          1           0      -14.900545   -1.624742    1.016261
     72          1           0      -12.114575    0.557814    1.860159
     73          1           0       -9.849997    1.486332    1.713561
     74          6           0       -6.927688    2.890499    0.786592
     75          6           0       -6.820574    4.268759    0.708116
     76          1           0       -6.152769    4.816060    1.362263
     77          1           0       -6.334436    2.344841    1.510642
     78          1           0       -9.232054    2.385586   -1.645441
     79          1           0       -9.078993    4.830121   -1.775834
     80          1           0       -7.894368    8.161501   -0.918177
     81          1           0       -7.953658    6.873436   -2.146840
     82          1           0       -9.258874    7.016340   -0.932988
 ---------------------------------------------------------------------

 SCF Done:  E(RPBE1PBE) =  -3727.45744277     A.U. after   18 cycles

 Excitation energies and oscillator strengths:

 Excited State   1:      Singlet-A      1.5482 eV  800.84 nm  f=0.4036  <S**2>=0.000
     202 -> 203        0.70488
 This state for optimization and/or second-order correction.
 Total Energy, E(TD-HF/TD-DFT) =  -3727.40054837
 Copying the excited state density for this state as the 1-particle RhoCI density.

 Excited State   2:      Singlet-A      2.0859 eV  594.40 nm  f=0.7106  <S**2>=0.000
     201 -> 203        0.69604

 Excited State   3:      Singlet-A      2.6530 eV  467.34 nm  f=0.6393  <S**2>=0.000
     200 -> 203       -0.23992
     201 -> 204       -0.11113
     202 -> 204        0.60737
     202 -> 205       -0.20968

 Excited State   4:      Singlet-A      2.7710 eV  447.43 nm  f=0.0974  <S**2>=0.000
     200 -> 203        0.59349
     201 -> 205       -0.14583
     202 -> 204        0.29139
     202 -> 205        0.15957

 Excited State   5:      Singlet-A      2.9411 eV  421.56 nm  f=0.1898  <S**2>=0.000
     200 -> 203       -0.24632
     202 -> 204        0.12081
     202 -> 205        0.64070

 Excited State   6:      Singlet-A      3.1953 eV  388.02 nm  f=0.0129  <S**2>=0.000
     199 -> 203        0.69647
     201 -> 204        0.10040

 Excited State   7:      Singlet-A      3.2015 eV  387.27 nm  f=0.2977  <S**2>=0.000
     199 -> 203       -0.10434
     201 -> 204        0.66137
     202 -> 204        0.14208

 Excited State   8:      Singlet-A      3.3196 eV  373.49 nm  f=0.0005  <S**2>=0.000
     198 -> 203        0.56759
     200 -> 203        0.13357
     201 -> 205        0.33691

 Excited State   9:      Singlet-A      3.4476 eV  359.63 nm  f=0.3316  <S**2>=0.000
     194 -> 203        0.10442
     198 -> 203       -0.29811
     201 -> 205        0.52226
     202 -> 206       -0.29941

 Excited State  10:      Singlet-A      3.5497 eV  349.28 nm  f=0.1048  <S**2>=0.000
     191 -> 203       -0.10917
     192 -> 203       -0.10079
     194 -> 203        0.21386
     196 -> 203       -0.11319
     198 -> 203       -0.14129
     201 -> 205        0.17280
     202 -> 206        0.56876

 The electronic state is 1-A.
 Alpha  occ. eigenvalues --  -89.12383 -89.06450 -89.06321 -89.05433 -19.25269
 Alpha  occ. eigenvalues --  -19.23893 -19.23770 -19.19323 -14.43677 -14.43423
 Alpha  occ. eigenvalues --  -14.41951 -14.37768 -10.36486 -10.30208 -10.29983
 Alpha  occ. eigenvalues --  -10.29261 -10.29193 -10.29097 -10.28617 -10.28599
 Alpha  occ. eigenvalues --  -10.28403 -10.28297 -10.28056 -10.28044 -10.27906
 Alpha  occ. eigenvalues --  -10.27684 -10.27615 -10.27537 -10.27227 -10.26902
 Alpha  occ. eigenvalues --  -10.26830 -10.26756 -10.26123 -10.26109 -10.25686
 Alpha  occ. eigenvalues --  -10.24782 -10.24659 -10.24557 -10.24417 -10.24361
 Alpha  occ. eigenvalues --  -10.23951 -10.23439 -10.23420 -10.23411 -10.23405
 Alpha  occ. eigenvalues --  -10.23374 -10.23372 -10.23319 -10.23300 -10.23210
 Alpha  occ. eigenvalues --  -10.22948 -10.22834 -10.22782 -10.22742  -8.10408
 Alpha  occ. eigenvalues --   -8.04835  -8.04695  -8.03811  -6.04192  -6.03614
 Alpha  occ. eigenvalues --   -6.03396  -5.98519  -5.98378  -5.98151  -5.98010
 Alpha  occ. eigenvalues --   -5.97784  -5.97646  -5.97490  -5.97124  -5.96771
 Alpha  occ. eigenvalues --   -1.14682  -1.10360  -1.10247  -1.07059  -1.05465
 Alpha  occ. eigenvalues --   -1.00012  -0.94618  -0.94120  -0.93793  -0.92991
 Alpha  occ. eigenvalues --   -0.91680  -0.90670  -0.89143  -0.89083  -0.87240
 Alpha  occ. eigenvalues --   -0.86522  -0.83041  -0.81470  -0.80735  -0.79774
 Alpha  occ. eigenvalues --   -0.79532  -0.78674  -0.78420  -0.78288  -0.77784
 Alpha  occ. eigenvalues --   -0.77142  -0.76977  -0.76099  -0.75592  -0.73314
 Alpha  occ. eigenvalues --   -0.72886  -0.71366  -0.70152  -0.68064  -0.67052
 Alpha  occ. eigenvalues --   -0.66024  -0.65439  -0.65238  -0.64397  -0.63925
 Alpha  occ. eigenvalues --   -0.63572  -0.62352  -0.61905  -0.61451  -0.59976
 Alpha  occ. eigenvalues --   -0.58688  -0.57722  -0.56619  -0.56514  -0.56379
 Alpha  occ. eigenvalues --   -0.56124  -0.55424  -0.54973  -0.54670  -0.54561
 Alpha  occ. eigenvalues --   -0.53696  -0.52718  -0.51699  -0.51531  -0.51425
 Alpha  occ. eigenvalues --   -0.50445  -0.50331  -0.49493  -0.49177  -0.49076
 Alpha  occ. eigenvalues --   -0.49052  -0.47913  -0.47824  -0.47561  -0.47044
 Alpha  occ. eigenvalues --   -0.46861  -0.46561  -0.45578  -0.44979  -0.44915
 Alpha  occ. eigenvalues --   -0.44519  -0.44396  -0.44308  -0.44099  -0.44000
 Alpha  occ. eigenvalues --   -0.43690  -0.43473  -0.43136  -0.42810  -0.42616
 Alpha  occ. eigenvalues --   -0.42569  -0.41794  -0.41448  -0.41036  -0.40882
 Alpha  occ. eigenvalues --   -0.40773  -0.40464  -0.40323  -0.40256  -0.40203
 Alpha  occ. eigenvalues --   -0.39438  -0.39230  -0.38889  -0.38512  -0.38153
 Alpha  occ. eigenvalues --   -0.38058  -0.37846  -0.37751  -0.37066  -0.37013
 Alpha  occ. eigenvalues --   -0.36294  -0.35579  -0.35326  -0.35020  -0.34870
 Alpha  occ. eigenvalues --   -0.34672  -0.34562  -0.34446  -0.34235  -0.33143
 Alpha  occ. eigenvalues --   -0.32794  -0.31939  -0.30554  -0.30223  -0.29630
 Alpha  occ. eigenvalues --   -0.28609  -0.28255  -0.28040  -0.27942  -0.27406
 Alpha  occ. eigenvalues --   -0.27326  -0.26995  -0.25946  -0.24816  -0.23807
 Alpha  occ. eigenvalues --   -0.21105  -0.18903
 Alpha virt. eigenvalues --   -0.12303  -0.07621  -0.07158  -0.04220  -0.02607
 Alpha virt. eigenvalues --   -0.01795  -0.01260  -0.00815  -0.00661  -0.00379
 Alpha virt. eigenvalues --   -0.00213  -0.00044   0.00776   0.02207   0.02335

 Mulliken charges:
               1
     1  C   -0.178158
     2  O   -0.358005
     3  C    0.180751
     4  C   -0.140041
     5  C   -0.070528
     6  C    0.052679
     7  N   -0.551483
     8  C    0.199888
     9  C   -0.120388
    10  C   -0.050783
    11  C    0.002788
    12  C   -0.113225
    13  C   -0.119833
    14  H    0.131973
    15  H    0.113506
    16  C   -0.289965
    17  S    0.340864
    18  C   -0.263604
    19  C   -0.014832
    20  C   -0.060697
    21  H    0.109440
    22  H    0.107808
    23  C   -0.248155
    24  S    0.354201
    25  C   -0.268370
    26  C   -0.017931
    27  C   -0.029961
    28  H    0.111535
    29  H    0.111961
    30  C   -0.244813
    31  C   -0.022786
    32  C   -0.014633
    33  C   -0.314699
    34  S    0.366435
    35  C    0.142412
    36  C   -0.143250
    37  C   -0.037672
    38  C   -0.082321
    39  C    0.148787
    40  C    0.170954
    41  N   -0.545963
    42  S    0.572040
    43  N   -0.515120
    44  C    0.109002
    45  C   -0.214783
    46  C    0.108243
    47  N   -0.280782
    48  C    0.468111
    49  O   -0.348129
    50  H    0.266014
    51  O   -0.329844
    52  H    0.158418
    53  H    0.143284
    54  H    0.119338
    55  H    0.141687
    56  H    0.111049
    57  H    0.102842
    58  H    0.130968
    59  C    0.053712
    60  C   -0.070257
    61  C   -0.140085
    62  C    0.180395
    63  C   -0.096737
    64  C   -0.066771
    65  H    0.120498
    66  H    0.117945
    67  O   -0.358877
    68  C   -0.178074
    69  H    0.127427
    70  H    0.126805
    71  H    0.144291
    72  H    0.121330
    73  H    0.117307
    74  C   -0.066177
    75  C   -0.095926
    76  H    0.119328
    77  H    0.120872
    78  H    0.116560
    79  H    0.121217
    80  H    0.144977
    81  H    0.127839
    82  H    0.126175
 Sum of Mulliken charges =  -0.00000

 Dipole moment (field-independent basis, Debye):
    X=             -7.0730    Y=             -5.7186    Z=             -0.2301  Tot=              9.0985
 Quadrupole moment (field-independent basis, Debye-Ang):
   XX=           -241.4893   YY=           -333.1865   ZZ=           -338.1402
   XY=            -69.3600   XZ=             -7.3028   YZ=             -7.2635

 Normal termination of Gaussian 16 at Thu Jul  8 14:36:59 2021.
