 Gaussian 16, Revision B.01,
 Gaussian 16:  ES64L-G16RevB.01 20-Dec-2017

 ---------------------------------------------------------------------
 #N TD(NStates=10)CAM-B3lYP/6-311G(d,p) SCRF=(Solvent=TetraHydroFuran)
 ---------------------------------------------------------------------

 ----
 Name
 ----
 Symbolic Z-matrix:
 Charge =  0 Multiplicity = 1

                         Standard orientation:
 ---------------------------------------------------------------------
 Center     Atomic      Atomic             Coordinates (Angstroms)
 Number     Number       Type             X           Y           Z
 ---------------------------------------------------------------------
      1          6           0       -0.937367   -3.073447    0.186672
      2          6           0       -2.122867   -2.115248    0.081661
      3          6           0       -1.679316   -0.804099   -0.068452
      4          6           0       -0.249325   -0.787165   -0.077728
      5         16           0        1.036410    0.361025   -0.215518
      6          6           0        2.238860   -0.926149   -0.055578
      7          6           0        3.663445   -0.618716   -0.088081
      8          6           0        4.167072    0.639785    0.284618
      9          6           0        5.523215    0.918205    0.260048
     10          6           0        6.453643   -0.056471   -0.145370
     11          7           0        7.828021    0.221147   -0.178165
     12          6           0        8.300703    1.552970   -0.385806
     13          6           0        9.254197    2.109715    0.465769
     14          1           0        9.625209    1.528423    1.301420
     15          6           0        9.745666    3.397532    0.252908
     16          6           0        9.267005    4.157431   -0.817016
     17          6           0        8.304305    3.605310   -1.672687
     18          6           0        7.836741    2.318757   -1.466163
     19          1           0        7.103023    1.897060   -2.142771
     20          1           0        7.950783    4.202556   -2.504337
     21          8           0        9.668305    5.425275   -1.114274
     22          6           0       10.642233    6.039950   -0.282435
     23          1           0       10.285306    6.139026    0.748855
     24          1           0       11.585682    5.482513   -0.288556
     25          1           0       10.808033    7.030888   -0.701547
     26          1           0       10.488787    3.794368    0.931210
     27          6           0        8.790537   -0.816003    0.014590
     28          6           0        8.706892   -1.681719    1.105345
     29          6           0        9.647255   -2.694117    1.294967
     30          6           0       10.707870   -2.836370    0.396541
     31          6           0       10.805065   -1.960304   -0.692355
     32          6           0        9.855745   -0.970857   -0.884487
     33          1           0        9.935782   -0.303465   -1.734163
     34          1           0       11.631034   -2.085101   -1.381938
     35          8           0       11.686719   -3.780380    0.489179
     36          6           0       11.645727   -4.694126    1.575939
     37          1           0       11.722954   -4.177359    2.539191
     38          1           0       10.731032   -5.297522    1.559834
     39          1           0       12.508032   -5.346312    1.448547
     40          1           0        9.548391   -3.348753    2.150306
     41          1           0        7.894861   -1.569078    1.813892
     42          6           0        5.957184   -1.318867   -0.523743
     43          6           0        4.600126   -1.587169   -0.494737
     44          1           0        4.253834   -2.557328   -0.831925
     45          1           0        6.645870   -2.082701   -0.860973
     46          1           0        5.873589    1.893646    0.571326
     47          1           0        3.486389    1.408137    0.634689
     48          6           0        1.625489   -2.161053    0.078410
     49          6           0        0.219718   -2.083396    0.064821
     50          1           0        2.191968   -3.072577    0.214700
     51         16           0       -2.977646    0.322058   -0.184968
     52          6           0       -4.162184   -0.988087   -0.012416
     53          6           0       -3.516210   -2.217730    0.113955
     54          1           0       -4.064580   -3.142153    0.244654
     55          6           0       -5.567054   -0.737299   -0.045138
     56         16           0       -6.680862   -2.036515   -0.376555
     57          6           0       -8.117241   -1.007346   -0.249715
     58          6           0       -7.699721    0.298072    0.013178
     59          6           0       -6.283611    0.455188    0.144695
     60          6           0       -5.918293    1.776862    0.543528
     61          6           0       -7.002029    2.580666    0.716207
     62         16           0       -8.542754    1.781825    0.380001
     63          6           0       -6.929485    3.995445    1.127359
     64          8           0       -5.900200    4.586493    1.352715
     65          8           0       -8.156994    4.542399    1.221469
     66          6           0       -8.202058    5.929065    1.604344
     67          1           0       -7.756993    6.064628    2.591080
     68          1           0       -7.661788    6.539691    0.879736
     69          1           0       -9.257040    6.190991    1.617581
     70          1           0       -4.914608    2.135918    0.716605
     71          6           0       -9.376140   -1.653440   -0.354095
     72          6           0      -10.622163   -1.158916   -0.653764
     73          6           0      -10.831709    0.144243   -1.177590
     74          7           0      -10.995247    1.193976   -1.635252
     75          6           0      -11.834467   -2.036742   -0.645164
     76          8           0      -11.763023   -3.147544    0.146859
     77          1           0      -11.061204   -3.044195    0.799445
     78          8           0      -12.816952   -1.818928   -1.296115
     79          1           0       -9.331350   -2.730405   -0.206037
     80          6           0       -0.917271   -3.800420    1.548251
     81          1           0       -0.924169   -3.086302    2.374015
     82          1           0       -1.789433   -4.452223    1.648799
     83          1           0       -0.021019   -4.420217    1.637464
     84          6           0       -0.930182   -4.093261   -0.972236
     85          1           0       -0.947217   -3.587426   -1.939546
     86          1           0       -0.033600   -4.717316   -0.926403
     87          1           0       -1.802170   -4.750158   -0.911574
 ---------------------------------------------------------------------

 SCF Done:  E(RCAM-B3LYP) =  -3810.89510514     A.U. after   17 cycles

 Excitation energies and oscillator strengths:

 Excited State   1:      Singlet-A      2.1695 eV  571.48 nm  f=1.9919  <S**2>=0.000
     207 -> 209       -0.37035
     208 -> 209        0.57045
 This state for optimization and/or second-order correction.
 Total Energy, E(TD-HF/TD-DFT) =  -3810.81537690
 Copying the excited state density for this state as the 1-particle RhoCI density.

 Excited State   2:      Singlet-A      3.1041 eV  399.42 nm  f=0.0441  <S**2>=0.000
     206 -> 209        0.32691
     207 -> 209        0.45568
     208 -> 209        0.25499
     208 -> 210       -0.22811
     208 -> 211        0.19329

 Excited State   3:      Singlet-A      3.3921 eV  365.51 nm  f=0.1014  <S**2>=0.000
     206 -> 210       -0.16366
     207 -> 209        0.21767
     207 -> 210       -0.41255
     208 -> 209        0.22246
     208 -> 210        0.42576

 Excited State   4:      Singlet-A      3.6832 eV  336.62 nm  f=0.5201  <S**2>=0.000
     204 -> 209       -0.11336
     206 -> 209       -0.16760
     206 -> 210       -0.12966
     207 -> 210       -0.15358
     207 -> 211       -0.11812
     208 -> 209       -0.14337
     208 -> 211        0.56166
     208 -> 213       -0.14492

 Excited State   5:      Singlet-A      3.7629 eV  329.50 nm  f=0.0046  <S**2>=0.000
     202 -> 209        0.11408
     204 -> 209        0.26307
     206 -> 209        0.48240
     206 -> 210       -0.11141
     207 -> 209       -0.25301
     207 -> 211       -0.16070
     208 -> 209       -0.14061
     208 -> 210        0.12775

 Excited State   6:      Singlet-A      4.0542 eV  305.82 nm  f=0.0347  <S**2>=0.000
     207 -> 212        0.29578
     208 -> 212        0.59449

 Excited State   7:      Singlet-A      4.0772 eV  304.09 nm  f=0.1632  <S**2>=0.000
     200 -> 209        0.44979
     201 -> 209        0.12326
     202 -> 209        0.46206
     203 -> 209        0.11690
     206 -> 209       -0.10423
     208 -> 210       -0.10054

 Excited State   8:      Singlet-A      4.2855 eV  289.31 nm  f=0.1019  <S**2>=0.000
     198 -> 209        0.10845
     204 -> 211       -0.10754
     207 -> 210       -0.22527
     207 -> 211        0.43760
     208 -> 209       -0.10777
     208 -> 210       -0.16444
     208 -> 213       -0.31148
     208 -> 214        0.12603
     208 -> 218        0.11734

 Excited State   9:      Singlet-A      4.4074 eV  281.31 nm  f=0.0344  <S**2>=0.000
     198 -> 209        0.44863
     198 -> 210       -0.10281
     199 -> 209       -0.15591
     200 -> 209       -0.12787
     202 -> 209        0.12039
     203 -> 209        0.17990
     204 -> 209        0.14045
     206 -> 209       -0.11731
     206 -> 210        0.18584
     207 -> 210        0.13840
     208 -> 210        0.21342
     208 -> 211        0.13670

 Excited State  10:      Singlet-A      4.4506 eV  278.58 nm  f=0.1193  <S**2>=0.000
     198 -> 209       -0.24526
     200 -> 209        0.15159
     203 -> 209       -0.11152
     204 -> 210        0.11886
     206 -> 210        0.26667
     207 -> 210        0.21419
     207 -> 211        0.13295
     208 -> 210        0.34228
     208 -> 213       -0.22466

 The electronic state is 1-A.
 Alpha  occ. eigenvalues --  -88.97578 -88.97015 -88.96697 -88.95880 -19.25071
 Alpha  occ. eigenvalues --  -19.24718 -19.22456 -19.22411 -19.19340 -19.19186
 Alpha  occ. eigenvalues --  -14.41757 -14.39443 -10.40101 -10.39751 -10.33397
 Alpha  occ. eigenvalues --  -10.31900 -10.31790 -10.31358 -10.31314 -10.31295
 Alpha  occ. eigenvalues --  -10.30749 -10.30714 -10.30603 -10.30425 -10.30079
 Alpha  occ. eigenvalues --  -10.30040 -10.29771 -10.29732 -10.29525 -10.29470
 Alpha  occ. eigenvalues --  -10.29087 -10.28948 -10.28836 -10.28804 -10.28745
 Alpha  occ. eigenvalues --  -10.28414 -10.27789 -10.26670 -10.26657 -10.26521
 Alpha  occ. eigenvalues --  -10.25887 -10.25760 -10.25740 -10.25526 -10.25457
 Alpha  occ. eigenvalues --  -10.25446 -10.25444 -10.25238 -10.25166 -10.25014
 Alpha  occ. eigenvalues --  -10.24990 -10.24969 -10.24953 -10.24374 -10.24351
 Alpha  occ. eigenvalues --   -8.06455  -8.05868  -8.05540  -8.04747  -6.02877
 Alpha  occ. eigenvalues --   -6.02457  -6.02278  -6.02086  -6.01981  -6.01889
 Alpha  occ. eigenvalues --   -6.01570  -6.01500  -6.01155  -6.01115  -6.00766
 Alpha  occ. eigenvalues --   -6.00383  -1.20470  -1.19925  -1.15308  -1.15267
 Alpha  occ. eigenvalues --   -1.11992  -1.11614  -1.05567  -1.02675  -1.01478
 Alpha  occ. eigenvalues --   -1.00481  -0.98008  -0.96243  -0.95330  -0.94941
 Alpha  occ. eigenvalues --   -0.93717  -0.93008  -0.91739  -0.88363  -0.87054
 Alpha  occ. eigenvalues --   -0.85764  -0.85328  -0.85052  -0.84105  -0.84091
 Alpha  occ. eigenvalues --   -0.83771  -0.83322  -0.82699  -0.82122  -0.81708
 Alpha  occ. eigenvalues --   -0.80850  -0.78945  -0.78360  -0.77729  -0.76866
 Alpha  occ. eigenvalues --   -0.74702  -0.72750  -0.71404  -0.71206  -0.71021
 Alpha  occ. eigenvalues --   -0.70283  -0.69830  -0.69455  -0.68328  -0.67599
 Alpha  occ. eigenvalues --   -0.66490  -0.65429  -0.64741  -0.64332  -0.63266
 Alpha  occ. eigenvalues --   -0.63036  -0.62484  -0.62094  -0.61944  -0.60939
 Alpha  occ. eigenvalues --   -0.60078  -0.59146  -0.58673  -0.57830  -0.57031
 Alpha  occ. eigenvalues --   -0.56981  -0.56720  -0.56058  -0.55477  -0.54953
 Alpha  occ. eigenvalues --   -0.54892  -0.54400  -0.54352  -0.54169  -0.53779
 Alpha  occ. eigenvalues --   -0.53449  -0.52581  -0.52395  -0.52318  -0.52061
 Alpha  occ. eigenvalues --   -0.51795  -0.51622  -0.51020  -0.50420  -0.50169
 Alpha  occ. eigenvalues --   -0.50047  -0.49936  -0.49884  -0.49427  -0.49189
 Alpha  occ. eigenvalues --   -0.48786  -0.48578  -0.48337  -0.48229  -0.47924
 Alpha  occ. eigenvalues --   -0.47657  -0.47141  -0.46794  -0.46270  -0.46120
 Alpha  occ. eigenvalues --   -0.46047  -0.45840  -0.45688  -0.45583  -0.45099
 Alpha  occ. eigenvalues --   -0.44849  -0.44795  -0.44375  -0.43745  -0.43575
 Alpha  occ. eigenvalues --   -0.43456  -0.43064  -0.42827  -0.42496  -0.42234
 Alpha  occ. eigenvalues --   -0.42085  -0.41123  -0.40893  -0.40642  -0.40367
 Alpha  occ. eigenvalues --   -0.40206  -0.39949  -0.39916  -0.39769  -0.39692
 Alpha  occ. eigenvalues --   -0.39617  -0.38431  -0.37407  -0.36664  -0.36551
 Alpha  occ. eigenvalues --   -0.34812  -0.33996  -0.32976  -0.32726  -0.32056
 Alpha  occ. eigenvalues --   -0.31991  -0.31969  -0.31740  -0.30862  -0.29146
 Alpha  occ. eigenvalues --   -0.28198  -0.24805  -0.22483
 Alpha virt. eigenvalues --   -0.08331  -0.04125  -0.01892   0.01230   0.01703
 Alpha virt. eigenvalues --    0.02798   0.03128   0.03505   0.03593   0.03654
 Alpha virt. eigenvalues --    0.04389   0.04895   0.05685   0.06462   0.06957

 Mulliken charges:
               1
     1  C   -0.262517
     2  C   -0.005882
     3  C   -0.176500
     4  C   -0.193129
     5  S    0.302984
     6  C   -0.283503
     7  C   -0.025934
     8  C   -0.100189
     9  C   -0.132806
    10  C    0.183011
    11  N   -0.486807
    12  C    0.042775
    13  C   -0.077331
    14  H    0.123832
    15  C   -0.150595
    16  C    0.156168
    17  C   -0.109128
    18  C   -0.065651
    19  H    0.126271
    20  H    0.122836
    21  O   -0.355359
    22  C   -0.155233
    23  H    0.124896
    24  H    0.124801
    25  H    0.141175
    26  H    0.135312
    27  C    0.041731
    28  C   -0.066665
    29  C   -0.149616
    30  C    0.156380
    31  C   -0.110819
    32  C   -0.075559
    33  H    0.123810
    34  H    0.122243
    35  O   -0.355596
    36  C   -0.154981
    37  H    0.124804
    38  H    0.124320
    39  H    0.141216
    40  H    0.135614
    41  H    0.125484
    42  C   -0.127631
    43  C   -0.065143
    44  H    0.117772
    45  H    0.133300
    46  H    0.134093
    47  H    0.125059
    48  C    0.003746
    49  C    0.009807
    50  H    0.123783
    51  S    0.354297
    52  C   -0.259838
    53  C    0.003240
    54  H    0.137278
    55  C   -0.170427
    56  S    0.371225
    57  C   -0.362973
    58  C   -0.063583
    59  C   -0.016433
    60  C    0.062567
    61  C   -0.380602
    62  S    0.359158
    63  C    0.459319
    64  O   -0.358369
    65  O   -0.336464
    66  C   -0.130464
    67  H    0.135260
    68  H    0.136262
    69  H    0.142808
    70  H    0.148253
    71  C    0.056032
    72  C   -0.205832
    73  C    0.030131
    74  N   -0.229474
    75  C    0.421157
    76  O   -0.319842
    77  H    0.276509
    78  O   -0.324932
    79  H    0.141590
    80  C   -0.230649
    81  H    0.124828
    82  H    0.122783
    83  H    0.123968
    84  C   -0.229099
    85  H    0.125415
    86  H    0.123484
    87  H    0.122766
 Sum of Mulliken charges =  -0.00000

 Dipole moment (field-independent basis, Debye):
    X=             17.4030    Y=             -5.2520    Z=              7.4131  Tot=             19.6317
 Quadrupole moment (field-independent basis, Debye-Ang):
   XX=           -484.3649   YY=           -295.3720   ZZ=           -350.0384
   XY=              7.3099   XZ=            -30.5545   YZ=             -2.9153

 Normal termination of Gaussian 16 at Fri Jun 11 15:58:36 2021.
