 Gaussian 09, Revision D.01,
 Gaussian 09:  ES64L-G09RevD.01 24-Apr-2013

 ------------------------
 #N B3LYP/6-311G(d,p) Opt
 ------------------------

 ---
 aaa
 ---
 Symbolic Z-matrix:
 Charge =  0 Multiplicity = 1

 SCF Done:  E(RB3LYP) =  -3622.03181528     A.U. after   20 cycles

 The electronic state is 1-A.
 Alpha  occ. eigenvalues --  -88.94575 -88.88345 -88.87445 -19.16488 -19.10308
 Alpha  occ. eigenvalues --  -14.36680 -14.36349 -14.36277 -14.35735 -14.35684
 Alpha  occ. eigenvalues --  -10.30531 -10.24215 -10.24161 -10.22705 -10.22507
 Alpha  occ. eigenvalues --  -10.22408 -10.22325 -10.22319 -10.22233 -10.22144
 Alpha  occ. eigenvalues --  -10.21659 -10.21624 -10.21581 -10.21519 -10.21516
 Alpha  occ. eigenvalues --  -10.21287 -10.21082 -10.20961 -10.20954 -10.20633
 Alpha  occ. eigenvalues --  -10.20574 -10.20060 -10.20041 -10.19964 -10.19710
 Alpha  occ. eigenvalues --  -10.19640 -10.19539 -10.19262 -10.19202 -10.18898
 Alpha  occ. eigenvalues --  -10.18769 -10.18614 -10.18395 -10.18384 -10.18295
 Alpha  occ. eigenvalues --  -10.18258 -10.18185 -10.18184 -10.18066 -10.18054
 Alpha  occ. eigenvalues --  -10.18035 -10.17880 -10.17622 -10.17584 -10.17535
 Alpha  occ. eigenvalues --  -10.17510 -10.17479 -10.17291 -10.17283 -10.17237
 Alpha  occ. eigenvalues --  -10.16845 -10.16783  -8.02850  -7.96988  -7.96108
 Alpha  occ. eigenvalues --   -5.99265  -5.98683  -5.98451  -5.93304  -5.92925
 Alpha  occ. eigenvalues --   -5.92534  -5.92412  -5.92038  -5.91675  -1.10500
 Alpha  occ. eigenvalues --   -1.03535  -1.02480  -1.00263  -0.99464  -0.99225
 Alpha  occ. eigenvalues --   -0.91173  -0.90340  -0.89440  -0.88918  -0.87436
 Alpha  occ. eigenvalues --   -0.86002  -0.85556  -0.85291  -0.85103  -0.81808
 Alpha  occ. eigenvalues --   -0.81069  -0.80534  -0.80406  -0.78339  -0.77985
 Alpha  occ. eigenvalues --   -0.77535  -0.77493  -0.77214  -0.76173  -0.75739
 Alpha  occ. eigenvalues --   -0.75233  -0.75171  -0.74242  -0.73888  -0.73370
 Alpha  occ. eigenvalues --   -0.72342  -0.70535  -0.69349  -0.69323  -0.69205
 Alpha  occ. eigenvalues --   -0.68355  -0.66904  -0.66231  -0.64235  -0.63914
 Alpha  occ. eigenvalues --   -0.63528  -0.63162  -0.63000  -0.62718  -0.61908
 Alpha  occ. eigenvalues --   -0.61286  -0.59849  -0.59473  -0.58819  -0.57752
 Alpha  occ. eigenvalues --   -0.57327  -0.57161  -0.56915  -0.55494  -0.54958
 Alpha  occ. eigenvalues --   -0.54170  -0.54008  -0.53514  -0.52454  -0.52364
 Alpha  occ. eigenvalues --   -0.52012  -0.51817  -0.50322  -0.49770  -0.49509
 Alpha  occ. eigenvalues --   -0.49264  -0.48554  -0.48493  -0.47787  -0.47573
 Alpha  occ. eigenvalues --   -0.47415  -0.46891  -0.46854  -0.46800  -0.46533
 Alpha  occ. eigenvalues --   -0.46055  -0.45558  -0.45409  -0.45099  -0.44952
 Alpha  occ. eigenvalues --   -0.44867  -0.44745  -0.44720  -0.44429  -0.44032
 Alpha  occ. eigenvalues --   -0.43879  -0.43850  -0.43743  -0.43513  -0.42792
 Alpha  occ. eigenvalues --   -0.42712  -0.41841  -0.41813  -0.41734  -0.41167
 Alpha  occ. eigenvalues --   -0.40986  -0.40925  -0.40522  -0.40322  -0.39913
 Alpha  occ. eigenvalues --   -0.39838  -0.39676  -0.39634  -0.39425  -0.39174
 Alpha  occ. eigenvalues --   -0.39126  -0.39016  -0.38630  -0.38435  -0.38163
 Alpha  occ. eigenvalues --   -0.38101  -0.37208  -0.37020  -0.36711  -0.36483
 Alpha  occ. eigenvalues --   -0.36348  -0.36046  -0.35775  -0.35164  -0.34887
 Alpha  occ. eigenvalues --   -0.34573  -0.34423  -0.34121  -0.33687  -0.33510
 Alpha  occ. eigenvalues --   -0.33459  -0.32835  -0.32255  -0.31069  -0.30145
 Alpha  occ. eigenvalues --   -0.29460  -0.29127  -0.28842  -0.28692  -0.28352
 Alpha  occ. eigenvalues --   -0.28026  -0.27971  -0.27184  -0.25905  -0.25307
 Alpha  occ. eigenvalues --   -0.25146  -0.24929  -0.24425  -0.23163  -0.22064
 Alpha  occ. eigenvalues --   -0.20013  -0.19266  -0.18940
 Alpha virt. eigenvalues --   -0.11005  -0.07981  -0.05089  -0.03933  -0.03649
 Alpha virt. eigenvalues --   -0.03307  -0.03067  -0.02079  -0.00660  -0.00536
 Alpha virt. eigenvalues --   -0.00106  -0.00076   0.00646   0.00750   0.01533

 Mulliken charges:
               1
     1  C   -0.232172
     2  C    0.026301
     3  C   -0.468950
     4  C    0.091383
     5  C    0.028523
     6  C   -0.163690
     7  C   -0.028479
     8  C   -0.074183
     9  C   -0.210507
    10  C    0.424870
    11  O   -0.301044
    12  O   -0.308557
    13  C   -0.027598
    14  C   -0.026009
    15  S    0.316364
    16  C   -0.216878
    17  C    0.060785
    18  C    0.136821
    19  N   -0.508631
    20  S    0.558950
    21  N   -0.501060
    22  C    0.132258
    23  C   -0.092026
    24  C   -0.110596
    25  C    0.097861
    26  C   -0.279860
    27  S    0.293714
    28  C    0.021465
    29  C   -0.031267
    30  C   -0.266636
    31  C   -0.280016
    32  C   -0.037105
    33  C   -0.062151
    34  C   -0.085273
    35  C   -0.065167
    36  C   -0.015780
    37  C    0.209620
    38  N   -0.551926
    39  C   -0.187411
    40  C    0.210731
    41  C   -0.064975
    42  C    0.247588
    43  C   -0.098855
    44  C    0.007154
    45  C   -0.066127
    46  C   -0.110297
    47  C   -0.096257
    48  C   -0.093801
    49  C    0.187059
    50  N   -0.558608
    51  C   -0.184961
    52  C    0.238284
    53  C   -0.084188
    54  C    0.017588
    55  C    0.191671
    56  N   -0.551092
    57  C   -0.187497
    58  C   -0.097845
    59  C   -0.094406
    60  C   -0.110796
    61  C   -0.064296
    62  C   -0.000635
    63  H    0.118490
    64  H    0.127469
    65  H    0.125867
    66  H    0.102734
    67  H    0.088378
    68  H    0.241458
    69  H    0.119244
    70  H    0.105558
    71  H    0.103298
    72  H    0.102318
    73  H    0.115832
    74  H    0.117330
    75  H    0.123992
    76  H    0.127415
    77  H    0.098792
    78  H    0.097791
    79  H    0.113497
    80  H    0.131014
    81  H    0.148348
    82  H    0.127227
    83  H    0.096250
    84  H    0.086178
    85  H    0.089280
    86  H    0.097522
    87  H    0.147520
    88  H    0.125120
    89  H    0.132231
    90  H    0.149890
    91  H    0.127335
    92  H    0.126937
    93  H    0.097262
    94  H    0.089229
    95  H    0.085200
    96  H    0.092509
    97  H    0.120104
 Sum of Mulliken charges =   0.00000

 Dipole moment (field-independent basis, Debye):
    X=             -5.2876    Y=             -5.2028    Z=              2.5796  Tot=              7.8538
 Quadrupole moment (field-independent basis, Debye-Ang):
   XX=           -384.9931   YY=           -383.0209   ZZ=           -381.1610
   XY=            -67.9643   XZ=             43.1019   YZ=             14.3649

 Optimization completed.
    -- Stationary point found.

                         Standard orientation:
 ---------------------------------------------------------------------
 Center     Atomic      Atomic             Coordinates (Angstroms)
 Number     Number       Type             X           Y           Z
 ---------------------------------------------------------------------
      1          6           0        9.572500   -2.625230    0.622714
      2          6           0        8.239196   -1.991206    0.350223
      3          6           0        8.066035   -0.662939   -0.006048
      4          6           0        9.037824    0.329136   -0.178257
      5          6           0        9.868849    1.200972   -0.330786
      6          6           0       10.832902    2.223419   -0.509322
      7          6           0       12.201950    1.967704   -0.302263
      8          6           0       13.138535    2.976377   -0.470222
      9          6           0       12.744022    4.265838   -0.849649
     10          6           0       13.707576    5.391186   -1.067154
     11          8           0       14.936269    5.262229   -0.496154
     12          8           0       13.444192    6.372847   -1.707431
     13          6           0       11.385741    4.515923   -1.081711
     14          6           0       10.442067    3.519119   -0.906263
     15         16           0        6.367486   -0.285381   -0.247341
     16          6           0        5.892851   -1.931697    0.136652
     17          6           0        4.491240   -2.321388    0.119400
     18          6           0        4.045086   -3.656567    0.426643
     19          7           0        4.826441   -4.685318    0.757553
     20         16           0        3.855372   -5.979721    1.008542
     21          7           0        2.404868   -5.284678    0.707382
     22          6           0        2.628103   -4.007303    0.397647
     23          6           0        3.477946   -1.431110   -0.195564
     24          6           0        2.110145   -1.768213   -0.221970
     25          6           0        1.618507   -3.032369    0.062827
     26          6           0        0.200274   -3.344310    0.024624
     27         16           0       -0.978552   -2.124581   -0.437665
     28          6           0       -0.451555   -4.524327    0.308653
     29          6           0       -1.866186   -4.474899    0.179422
     30          6           0       -2.739275   -5.660670    0.497717
     31          6           0       -2.317711   -3.230734   -0.215118
     32          6           0       -3.689063   -2.757154   -0.457375
     33          6           0       -4.589015   -3.540927   -1.209351
     34          6           0       -5.867652   -3.088000   -1.501455
     35          6           0       -4.105764   -1.510631    0.031617
     36          6           0       -5.403856   -1.047611   -0.203123
     37          6           0       -6.253955   -1.838216   -1.020255
     38          7           0       -7.435109   -1.157498   -1.249887
     39          6           0       -8.634127   -1.833175   -1.718003
     40          6           0       -7.360400    0.089678   -0.632982
     41          6           0       -6.156296    0.155140    0.118542
     42          6           0       -5.987749    1.267289    0.981336
     43          6           0       -6.883402    2.369861    0.964180
     44          6           0       -6.497472    3.242595    2.059568
     45          6           0       -7.033648    4.384988    2.672851
     46          6           0       -6.401217    4.940793    3.778761
     47          6           0       -5.235774    4.370533    4.304751
     48          6           0       -4.704060    3.211801    3.751516
     49          6           0       -5.351325    2.651750    2.649384
     50          7           0       -5.061991    1.459295    1.999834
     51          6           0       -4.207686    0.450846    2.605945
     52          6           0       -7.921813    2.358980    0.002547
     53          6           0       -8.220281    1.205743   -0.771821
     54          6           0       -9.312962    1.571147   -1.661645
     55          6           0       -9.632895    2.919542   -1.357383
     56          7           0       -8.779443    3.386228   -0.367765
     57          6           0       -8.567981    4.810508   -0.161228
     58          6           0      -10.628968    3.627450   -2.029638
     59          6           0      -11.314396    2.982705   -3.052244
     60          6           0      -10.991458    1.666990   -3.402555
     61          6           0       -9.999776    0.966209   -2.724938
     62          6           0        7.009795   -2.689606    0.425960
     63          1           0       10.381571   -1.899431    0.536912
     64          1           0        9.767996   -3.438633   -0.082877
     65          1           0        9.601650   -3.053173    1.629290
     66          1           0       12.518966    0.972137   -0.018074
     67          1           0       14.187707    2.731158   -0.337395
     68          1           0       14.943136    4.517058    0.115055
     69          1           0       11.092449    5.508422   -1.400004
     70          1           0        9.392654    3.724733   -1.076925
     71          1           0        3.734918   -0.406575   -0.439178
     72          1           0        1.413764   -0.979800   -0.482094
     73          1           0        0.082118   -5.408663    0.622755
     74          1           0       -2.326673   -6.219817    1.341206
     75          1           0       -2.803366   -6.353436   -0.348561
     76          1           0       -3.754757   -5.356365    0.754493
     77          1           0       -4.256931   -4.487894   -1.614906
     78          1           0       -6.527019   -3.678286   -2.126191
     79          1           0       -3.397248   -0.916793    0.588840
     80          1           0       -8.669310   -1.903308   -2.809266
     81          1           0       -9.514439   -1.304965   -1.361471
     82          1           0       -8.656745   -2.845031   -1.306219
     83          1           0       -7.951805    4.829499    2.318867
     84          1           0       -6.822509    5.824297    4.244431
     85          1           0       -4.749911    4.826352    5.159705
     86          1           0       -3.811723    2.761687    4.168884
     87          1           0       -4.598775   -0.540911    2.394537
     88          1           0       -4.210287    0.588970    3.688162
     89          1           0       -3.174548    0.515860    2.251874
     90          1           0       -7.549779    4.985612    0.174886
     91          1           0       -9.266547    5.229593    0.569169
     92          1           0       -8.706522    5.332766   -1.110468
     93          1           0      -10.866518    4.650342   -1.763883
     94          1           0      -12.096272    3.508388   -3.588056
     95          1           0      -11.516694    1.186325   -4.219928
     96          1           0       -9.760401   -0.033771   -3.050741
     97          1           0        6.935361   -3.733875    0.688510
 ---------------------------------------------------------------------

 Normal termination of Gaussian 09 at Thu Sep 16 13:11:04 2021.
