 Gaussian 16, Revision B.01,
 Gaussian 16:  ES64L-G16RevB.01 20-Dec-2017

 -------------------------------------
 #N TD(NStates=10) PBE1PBE/6-311G(d,p)
 -------------------------------------

 ----
 Name
 ----
 Symbolic Z-matrix:
 Charge =  0 Multiplicity = 1

                         Standard orientation:
 ---------------------------------------------------------------------
 Center     Atomic      Atomic             Coordinates (Angstroms)
 Number     Number       Type             X           Y           Z
 ---------------------------------------------------------------------
      1          6           0        9.572500   -2.625230    0.622714
      2          6           0        8.239196   -1.991206    0.350223
      3          6           0        8.066035   -0.662939   -0.006048
      4          6           0        9.037824    0.329136   -0.178257
      5          6           0        9.868849    1.200972   -0.330786
      6          6           0       10.832902    2.223419   -0.509322
      7          6           0       12.201950    1.967704   -0.302263
      8          6           0       13.138535    2.976377   -0.470222
      9          6           0       12.744022    4.265838   -0.849649
     10          6           0       13.707576    5.391186   -1.067154
     11          8           0       14.936269    5.262229   -0.496154
     12          8           0       13.444192    6.372847   -1.707431
     13          6           0       11.385741    4.515923   -1.081711
     14          6           0       10.442067    3.519119   -0.906263
     15         16           0        6.367486   -0.285381   -0.247341
     16          6           0        5.892851   -1.931697    0.136652
     17          6           0        4.491240   -2.321388    0.119400
     18          6           0        4.045086   -3.656567    0.426643
     19          7           0        4.826441   -4.685318    0.757553
     20         16           0        3.855372   -5.979721    1.008542
     21          7           0        2.404868   -5.284678    0.707382
     22          6           0        2.628103   -4.007303    0.397647
     23          6           0        3.477946   -1.431110   -0.195564
     24          6           0        2.110145   -1.768213   -0.221970
     25          6           0        1.618507   -3.032369    0.062827
     26          6           0        0.200274   -3.344310    0.024624
     27         16           0       -0.978552   -2.124581   -0.437665
     28          6           0       -0.451555   -4.524327    0.308653
     29          6           0       -1.866186   -4.474899    0.179422
     30          6           0       -2.739275   -5.660670    0.497717
     31          6           0       -2.317711   -3.230734   -0.215118
     32          6           0       -3.689063   -2.757154   -0.457375
     33          6           0       -4.589015   -3.540927   -1.209351
     34          6           0       -5.867652   -3.088000   -1.501455
     35          6           0       -4.105764   -1.510631    0.031617
     36          6           0       -5.403856   -1.047611   -0.203123
     37          6           0       -6.253955   -1.838216   -1.020255
     38          7           0       -7.435109   -1.157498   -1.249887
     39          6           0       -8.634127   -1.833175   -1.718003
     40          6           0       -7.360400    0.089678   -0.632982
     41          6           0       -6.156296    0.155140    0.118542
     42          6           0       -5.987749    1.267289    0.981336
     43          6           0       -6.883402    2.369861    0.964180
     44          6           0       -6.497472    3.242595    2.059568
     45          6           0       -7.033648    4.384988    2.672851
     46          6           0       -6.401217    4.940793    3.778761
     47          6           0       -5.235774    4.370533    4.304751
     48          6           0       -4.704060    3.211801    3.751516
     49          6           0       -5.351325    2.651750    2.649384
     50          7           0       -5.061991    1.459295    1.999834
     51          6           0       -4.207686    0.450846    2.605945
     52          6           0       -7.921813    2.358980    0.002547
     53          6           0       -8.220281    1.205743   -0.771821
     54          6           0       -9.312962    1.571147   -1.661645
     55          6           0       -9.632895    2.919542   -1.357383
     56          7           0       -8.779443    3.386228   -0.367765
     57          6           0       -8.567981    4.810508   -0.161228
     58          6           0      -10.628968    3.627450   -2.029638
     59          6           0      -11.314396    2.982705   -3.052244
     60          6           0      -10.991458    1.666990   -3.402555
     61          6           0       -9.999776    0.966209   -2.724938
     62          6           0        7.009795   -2.689606    0.425960
     63          1           0       10.381571   -1.899431    0.536912
     64          1           0        9.767996   -3.438633   -0.082877
     65          1           0        9.601650   -3.053173    1.629290
     66          1           0       12.518966    0.972137   -0.018074
     67          1           0       14.187707    2.731158   -0.337395
     68          1           0       14.943136    4.517058    0.115055
     69          1           0       11.092449    5.508422   -1.400004
     70          1           0        9.392654    3.724733   -1.076925
     71          1           0        3.734918   -0.406575   -0.439178
     72          1           0        1.413764   -0.979800   -0.482094
     73          1           0        0.082118   -5.408663    0.622755
     74          1           0       -2.326673   -6.219817    1.341206
     75          1           0       -2.803366   -6.353436   -0.348561
     76          1           0       -3.754757   -5.356365    0.754493
     77          1           0       -4.256931   -4.487894   -1.614906
     78          1           0       -6.527019   -3.678286   -2.126191
     79          1           0       -3.397248   -0.916793    0.588840
     80          1           0       -8.669310   -1.903308   -2.809266
     81          1           0       -9.514439   -1.304965   -1.361471
     82          1           0       -8.656745   -2.845031   -1.306219
     83          1           0       -7.951805    4.829499    2.318867
     84          1           0       -6.822509    5.824297    4.244431
     85          1           0       -4.749911    4.826352    5.159705
     86          1           0       -3.811723    2.761687    4.168884
     87          1           0       -4.598775   -0.540911    2.394537
     88          1           0       -4.210287    0.588970    3.688162
     89          1           0       -3.174548    0.515860    2.251874
     90          1           0       -7.549779    4.985612    0.174886
     91          1           0       -9.266547    5.229593    0.569169
     92          1           0       -8.706522    5.332766   -1.110468
     93          1           0      -10.866518    4.650342   -1.763883
     94          1           0      -12.096272    3.508388   -3.588056
     95          1           0      -11.516694    1.186325   -4.219928
     96          1           0       -9.760401   -0.033771   -3.050741
     97          1           0        6.935361   -3.733875    0.688510
 ---------------------------------------------------------------------

 SCF Done:  E(RPBE1PBE) =  -3618.75671362     A.U. after   22 cycles

 Excitation energies and oscillator strengths:

 Excited State   1:      Singlet-A      2.0295 eV  610.91 nm  f=0.7178  <S**2>=0.000
     221 -> 224        0.21143
     223 -> 224        0.67039
 This state for optimization and/or second-order correction.
 Total Energy, E(TD-HF/TD-DFT) =  -3618.68213132
 Copying the excited state density for this state as the 1-particle RhoCI density.

 Excited State   2:      Singlet-A      2.1928 eV  565.42 nm  f=0.0034  <S**2>=0.000
     222 -> 224        0.70257

 Excited State   3:      Singlet-A      2.3226 eV  533.82 nm  f=0.2996  <S**2>=0.000
     221 -> 224        0.66434
     223 -> 224       -0.21497

 Excited State   4:      Singlet-A      2.8748 eV  431.28 nm  f=0.0488  <S**2>=0.000
     219 -> 224       -0.16961
     220 -> 224        0.60737
     221 -> 225       -0.17460
     223 -> 225       -0.24070

 Excited State   5:      Singlet-A      2.9716 eV  417.23 nm  f=0.5104  <S**2>=0.000
     220 -> 224        0.29423
     221 -> 225        0.22543
     223 -> 225        0.58501

 Excited State   6:      Singlet-A      3.1542 eV  393.08 nm  f=0.0028  <S**2>=0.000
     222 -> 225        0.70151

 Excited State   7:      Singlet-A      3.2153 eV  385.60 nm  f=0.1275  <S**2>=0.000
     219 -> 224        0.40969
     220 -> 224        0.16557
     221 -> 225        0.46661
     223 -> 225       -0.24670

 Excited State   8:      Singlet-A      3.2390 eV  382.79 nm  f=0.2127  <S**2>=0.000
     219 -> 224        0.51658
     221 -> 225       -0.39559
     223 -> 225        0.17290
     223 -> 226        0.10676

 Excited State   9:      Singlet-A      3.5033 eV  353.90 nm  f=0.0011  <S**2>=0.000
     215 -> 224        0.47141
     216 -> 224        0.31466
     217 -> 224        0.39416

 Excited State  10:      Singlet-A      3.5166 eV  352.56 nm  f=0.2267  <S**2>=0.000
     221 -> 227        0.11678
     222 -> 226        0.12763
     222 -> 228       -0.22195
     223 -> 226        0.47310
     223 -> 227       -0.38525

 The electronic state is 1-A.
 Alpha  occ. eigenvalues --  -89.11787 -89.05682 -89.04783 -19.24569 -19.18368
 Alpha  occ. eigenvalues --  -14.43898 -14.43552 -14.43479 -14.42996 -14.42947
 Alpha  occ. eigenvalues --  -10.35573 -10.29582 -10.29522 -10.28249 -10.28012
 Alpha  occ. eigenvalues --  -10.27934 -10.27739 -10.27681 -10.27644 -10.27119
 Alpha  occ. eigenvalues --  -10.27092 -10.26976 -10.26869 -10.26863 -10.26683
 Alpha  occ. eigenvalues --  -10.26561 -10.26506 -10.26280 -10.26275 -10.25981
 Alpha  occ. eigenvalues --  -10.25884 -10.25480 -10.25358 -10.25316 -10.24996
 Alpha  occ. eigenvalues --  -10.24983 -10.24816 -10.24650 -10.24605 -10.24294
 Alpha  occ. eigenvalues --  -10.24150 -10.24031 -10.23776 -10.23773 -10.23631
 Alpha  occ. eigenvalues --  -10.23567 -10.23561 -10.23514 -10.23413 -10.23374
 Alpha  occ. eigenvalues --  -10.23371 -10.22876 -10.22867 -10.22832 -10.22827
 Alpha  occ. eigenvalues --  -10.22808 -10.22748 -10.22537 -10.22480 -10.22279
 Alpha  occ. eigenvalues --  -10.22071 -10.22005  -8.09827  -8.04057  -8.03174
 Alpha  occ. eigenvalues --   -6.03613  -6.03034  -6.02812  -5.97749  -5.97376
 Alpha  occ. eigenvalues --   -5.96994  -5.96855  -5.96487  -5.96132  -1.13395
 Alpha  occ. eigenvalues --   -1.06411  -1.05189  -1.03138  -1.02308  -1.02059
 Alpha  occ. eigenvalues --   -0.93820  -0.92975  -0.92052  -0.91539  -0.90031
 Alpha  occ. eigenvalues --   -0.88564  -0.88100  -0.87826  -0.87652  -0.84256
 Alpha  occ. eigenvalues --   -0.83491  -0.82941  -0.82806  -0.80644  -0.80266
 Alpha  occ. eigenvalues --   -0.79805  -0.79783  -0.79465  -0.78398  -0.77974
 Alpha  occ. eigenvalues --   -0.77485  -0.77409  -0.76435  -0.76081  -0.75538
 Alpha  occ. eigenvalues --   -0.74493  -0.72575  -0.71376  -0.71360  -0.71203
 Alpha  occ. eigenvalues --   -0.70358  -0.68865  -0.68145  -0.66147  -0.65816
 Alpha  occ. eigenvalues --   -0.65375  -0.65042  -0.64885  -0.64590  -0.63652
 Alpha  occ. eigenvalues --   -0.63088  -0.61618  -0.61232  -0.60551  -0.59455
 Alpha  occ. eigenvalues --   -0.59010  -0.58840  -0.58577  -0.57206  -0.56593
 Alpha  occ. eigenvalues --   -0.55775  -0.55546  -0.55078  -0.53960  -0.53876
 Alpha  occ. eigenvalues --   -0.53528  -0.53374  -0.51826  -0.51244  -0.50939
 Alpha  occ. eigenvalues --   -0.50732  -0.49982  -0.49875  -0.49142  -0.48894
 Alpha  occ. eigenvalues --   -0.48774  -0.48418  -0.48200  -0.48145  -0.47818
 Alpha  occ. eigenvalues --   -0.47378  -0.47047  -0.46703  -0.46321  -0.46173
 Alpha  occ. eigenvalues --   -0.46155  -0.45925  -0.45909  -0.45853  -0.45253
 Alpha  occ. eigenvalues --   -0.45128  -0.45097  -0.45002  -0.44728  -0.44052
 Alpha  occ. eigenvalues --   -0.43926  -0.43056  -0.43024  -0.42910  -0.42264
 Alpha  occ. eigenvalues --   -0.42080  -0.42003  -0.41688  -0.41618  -0.41097
 Alpha  occ. eigenvalues --   -0.41031  -0.40957  -0.40775  -0.40588  -0.40357
 Alpha  occ. eigenvalues --   -0.40227  -0.40188  -0.39705  -0.39491  -0.39344
 Alpha  occ. eigenvalues --   -0.39167  -0.38158  -0.38004  -0.37987  -0.37460
 Alpha  occ. eigenvalues --   -0.37409  -0.37203  -0.36888  -0.36305  -0.36002
 Alpha  occ. eigenvalues --   -0.35543  -0.35340  -0.35191  -0.34873  -0.34732
 Alpha  occ. eigenvalues --   -0.34593  -0.33960  -0.33462  -0.32347  -0.31244
 Alpha  occ. eigenvalues --   -0.30548  -0.30203  -0.29922  -0.29771  -0.29471
 Alpha  occ. eigenvalues --   -0.29044  -0.28978  -0.28215  -0.26870  -0.26264
 Alpha  occ. eigenvalues --   -0.26111  -0.25880  -0.25356  -0.24053  -0.22914
 Alpha  occ. eigenvalues --   -0.20793  -0.20024  -0.19683
 Alpha virt. eigenvalues --   -0.10749  -0.07605  -0.04617  -0.03484  -0.03193
 Alpha virt. eigenvalues --   -0.02763  -0.02557  -0.01570   0.00026   0.00038
 Alpha virt. eigenvalues --    0.00487   0.00530   0.01260   0.01360   0.02217

 Mulliken charges:
               1
     1  C   -0.270843
     2  C    0.024251
     3  C   -0.483753
     4  C    0.065735
     5  C    0.016632
     6  C   -0.171733
     7  C   -0.028941
     8  C   -0.080179
     9  C   -0.239044
    10  C    0.462727
    11  O   -0.311605
    12  O   -0.321226
    13  C   -0.029745
    14  C   -0.026557
    15  S    0.348545
    16  C   -0.222365
    17  C    0.072225
    18  C    0.162131
    19  N   -0.549574
    20  S    0.568276
    21  N   -0.541493
    22  C    0.158069
    23  C   -0.107560
    24  C   -0.129139
    25  C    0.111976
    26  C   -0.295711
    27  S    0.326378
    28  C    0.016503
    29  C   -0.043301
    30  C   -0.311432
    31  C   -0.302099
    32  C   -0.050676
    33  C   -0.068209
    34  C   -0.082314
    35  C   -0.062989
    36  C   -0.013969
    37  C    0.232942
    38  N   -0.645217
    39  C   -0.229812
    40  C    0.232781
    41  C   -0.049329
    42  C    0.271791
    43  C   -0.095541
    44  C    0.013100
    45  C   -0.067032
    46  C   -0.121447
    47  C   -0.106419
    48  C   -0.093513
    49  C    0.205092
    50  N   -0.653433
    51  C   -0.226153
    52  C    0.263277
    53  C   -0.081037
    54  C    0.024375
    55  C    0.210358
    56  N   -0.644262
    57  C   -0.229647
    58  C   -0.098453
    59  C   -0.104262
    60  C   -0.122791
    61  C   -0.062740
    62  C   -0.011395
    63  H    0.136008
    64  H    0.146485
    65  H    0.144736
    66  H    0.112238
    67  H    0.100386
    68  H    0.246148
    69  H    0.130059
    70  H    0.115220
    71  H    0.114542
    72  H    0.113517
    73  H    0.127755
    74  H    0.136045
    75  H    0.143862
    76  H    0.147549
    77  H    0.111478
    78  H    0.109928
    79  H    0.128182
    80  H    0.148271
    81  H    0.166435
    82  H    0.145068
    83  H    0.108204
    84  H    0.097828
    85  H    0.100778
    86  H    0.110337
    87  H    0.166286
    88  H    0.142440
    89  H    0.149306
    90  H    0.168411
    91  H    0.144451
    92  H    0.144870
    93  H    0.109977
    94  H    0.100665
    95  H    0.096745
    96  H    0.103730
    97  H    0.131837
 Sum of Mulliken charges =  -0.00000

 Dipole moment (field-independent basis, Debye):
    X=             -5.1233    Y=             -5.2156    Z=              2.6075  Tot=              7.7621
 Quadrupole moment (field-independent basis, Debye-Ang):
   XX=           -377.6480   YY=           -377.2963   ZZ=           -379.2606
   XY=            -68.0991   XZ=             44.6658   YZ=             14.5085

 Normal termination of Gaussian 16 at Mon Jul 19 15:14:14 2021.
