 Gaussian 16, Revision C.01,
 Gaussian 16:  ES64L-G16RevC.01  3-Jul-2019

 -------------------------------------
 #N TD(NStates=10) PBE1PBE/6-311G(d,p)
 -------------------------------------

 ---------
 C25H20ON4
 ---------
 Symbolic Z-matrix:
 Charge =  0 Multiplicity = 1

                         Standard orientation:
 ---------------------------------------------------------------------
 Center     Atomic      Atomic             Coordinates (Angstroms)
 Number     Number       Type             X           Y           Z
 ---------------------------------------------------------------------
      1          7           0       -7.909998    1.253969    0.142774
      2          6           0       -6.574396    1.683095    0.071958
      3          6           0       -6.224716    3.020085    0.336904
      4          6           0       -4.905762    3.432674    0.271831
      5          6           0       -3.864764    2.547807   -0.070616
      6          6           0       -4.223248    1.209454   -0.333163
      7          6           0       -5.539841    0.789367   -0.261587
      8          6           0       -8.380227    0.190077   -0.684328
      9          6           0       -8.139772    0.186767   -2.058668
     10          6           0       -8.603813   -0.849372   -2.868563
     11          6           0       -9.342969   -1.893833   -2.307784
     12          6           0       -9.597928   -1.889730   -0.930465
     13          6           0       -9.116110   -0.867613   -0.130167
     14          6           0       -8.839962    1.896087    1.014106
     15          6           0       -8.530097    2.104237    2.367058
     16          6           0       -9.438078    2.716094    3.214291
     17          6           0      -10.693327    3.119209    2.739834
     18          6           0      -11.016552    2.904664    1.398167
     19          6           0      -10.088232    2.306347    0.546330
     20          1           0       -6.995209    3.733982    0.597669
     21          1           0       -4.680164    4.468964    0.498303
     22          6           0       -2.484840    2.999872   -0.162535
     23          1           0       -3.447475    0.499094   -0.580148
     24          1           0       -5.776883   -0.247270   -0.464487
     25          1           0       -7.577801    0.999546   -2.503043
     26          1           0       -8.394282   -0.819678   -3.929304
     27          8           0       -9.854190   -2.949249   -3.004504
     28          1           0      -10.167946   -2.708999   -0.509386
     29          1           0       -9.311809   -0.878149    0.935373
     30          1           0       -7.568412    1.783124    2.749042
     31          1           0       -9.205337    2.879494    4.259556
     32          8           0      -11.517579    3.699883    3.657963
     33          1           0      -11.976525    3.204572    0.999999
     34          1           0      -10.343805    2.149938   -0.494819
     35          6           0       -1.282906    2.275618   -0.145620
     36          6           0       -0.106285    3.094768   -0.254457
     37          6           0       -0.377809    4.465497   -0.378134
     38         16           0       -2.112078    4.686524   -0.348304
     39          6           0        0.510252    5.603729   -0.504058
     40          6           0        0.009050    6.901710   -0.752363
     41          6           0        0.855298    7.984156   -0.867519
     42          6           0        2.256297    7.847595   -0.747145
     43          6           0        2.757878    6.550732   -0.496866
     44          6           0        1.913568    5.464646   -0.378821
     45          6           0        3.049220    9.041705   -0.889289
     46          6           0        4.395302    9.263865   -0.849832
     47          6           0        4.853720   10.666798   -1.041589
     48          8           0        4.127155   11.615023   -1.227708
     49          8           0        6.198576   10.777918   -0.985469
     50          7           0       -1.180821    0.924115   -0.077108
     51          7           0        1.127368    2.531332   -0.177907
     52          1           0       -1.057401    7.059955   -0.863452
     53          1           0        0.437961    8.966785   -1.060452
     54          1           0        3.821422    6.390273   -0.388936
     55          1           0        2.321048    4.484156   -0.181458
     56          1           0        2.480519    9.951504   -1.063693
     57          6           0        5.380494    8.258469   -0.643924
     58          1           0        6.401526   11.715065   -1.118375
     59          7           0        6.178366    7.437573   -0.477745
     60          6           0        0.017807    0.382125   -0.067225
     61          6           0        1.218367    1.224560   -0.043972
     62          6           0        0.056625   -1.099400   -0.126094
     63          6           0        0.956540   -1.795424   -0.945936
     64          6           0        2.863736   -0.298821    1.121652
     65          6           0        2.584582    0.693890    0.170991
     66          6           0        3.670141    1.260211   -0.515054
     67          6           0        4.970473    0.843827   -0.283801
     68          6           0        5.246095   -0.152584    0.671381
     69          6           0        4.162712   -0.711566    1.373495
     70          6           0        0.919234   -3.177455   -1.048123
     71          6           0       -0.022731   -3.928770   -0.323172
     72          6           0       -0.932293   -3.234188    0.494408
     73          6           0       -0.893412   -1.851338    0.580366
     74          1           0        3.481502    2.047183   -1.234934
     75          1           0        5.785583    1.299183   -0.831124
     76          1           0        4.345649   -1.475231    2.118017
     77          1           0        1.626466   -3.684753   -1.691361
     78          1           0       -1.675201   -3.785834    1.056155
     79          1           0       -1.616368   -1.332629    1.198018
     80          6           0      -12.804301    4.127650    3.235893
     81          6           0       -9.635946   -3.002584   -4.406606
     82          1           0      -13.281069    4.551523    4.118122
     83          1           0      -12.737793    4.895873    2.457164
     84          1           0      -13.406274    3.289106    2.867632
     85          1           0      -10.080230   -2.140066   -4.916237
     86          1           0       -8.567796   -3.054710   -4.646325
     87          1           0      -10.125273   -3.912775   -4.749452
     88          7           0        6.563324   -0.570972    0.920009
     89          6           0        7.321587   -1.100438   -1.356308
     90          6           0        7.553652   -0.523181   -0.107812
     91          6           0        8.792325    0.090731    0.127426
     92          6           0        9.765096    0.120671   -0.857495
     93          6           0        9.521054   -0.447919   -2.114088
     94          6           0        8.288091   -1.056718   -2.360896
     95          1           0        8.070818   -1.509849   -3.318708
     96          1           0        8.986667    0.543822    1.092135
     97          1           0        6.371857   -1.584646   -1.550533
     98          8           0       10.539567   -0.355970   -3.016430
     99          1           0       10.723176    0.595135   -0.683532
    100          6           0        7.636035   -2.272704    2.322719
    101          6           0        6.944038   -1.068002    2.202916
    102          6           0        6.655859   -0.341124    3.368280
    103          6           0        7.036569   -0.818062    4.610975
    104          6           0        7.736310   -2.026623    4.724127
    105          6           0        8.041139   -2.750216    3.569198
    106          1           0        6.128406    0.602131    3.290872
    107          1           0        7.869710   -2.842158    1.431142
    108          8           0        8.073392   -2.402074    5.991536
    109          1           0        6.818245   -0.261965    5.514580
    110          6           0       10.345412   -0.901550   -4.312771
    111          1           0       11.267560   -0.707872   -4.858250
    112          1           0       10.170051   -1.982760   -4.272741
    113          1           0        9.510267   -0.417634   -4.831847
    114          7           0       -0.054765   -5.332532   -0.413582
    115          6           0        1.279144   -7.052159   -1.552673
    116          6           0        0.357301   -5.996338   -1.607602
    117          6           0       -0.154800   -5.623844   -2.850921
    118          6           0        0.249857   -6.268547   -4.019704
    119          6           0        1.164996   -7.321932   -3.952753
    120          6           0        1.670346   -7.711439   -2.705973
    121          1           0        2.381259   -8.528037   -2.670234
    122          1           0       -0.872866   -4.814547   -2.909635
    123          1           0        1.684172   -7.354748   -0.594439
    124          8           0        1.623475   -8.026860   -5.027256
    125          1           0       -0.165465   -5.948922   -4.965976
    126          6           0       -1.419636   -7.151827    0.502168
    127          6           0       -0.491734   -6.127068    0.687818
    128          6           0        0.021807   -5.915156    1.976704
    129          6           0       -0.394468   -6.695710    3.041737
    130          6           0       -1.321505   -7.727857    2.846828
    131          6           0       -1.828151   -7.956576    1.565756
    132          1           0       -2.545492   -8.744915    1.381486
    133          1           0        0.749583   -5.128930    2.137603
    134          1           0       -1.823169   -7.330594   -0.487291
    135          8           0       -1.656472   -8.444559    3.958220
    136          1           0       -0.002626   -6.536135    4.038974
    137          6           0        1.150371   -7.674134   -6.318622
    138          6           0       -2.597563   -9.499139    3.822964
    139          1           0        1.647125   -8.350299   -7.012530
    140          1           0        0.065496   -7.806402   -6.400696
    141          1           0        1.409607   -6.640270   -6.573849
    142          1           0       -2.236195  -10.276247    3.139725
    143          1           0       -3.567841   -9.130120    3.471570
    144          1           0       -2.714414   -9.923285    4.818897
    145          1           0        8.581223   -3.685783    3.622832
    146          6           0        8.785842   -3.617345    6.168906
    147          1           0        8.946590   -3.714229    7.241391
    148          1           0        8.209166   -4.477954    5.811088
    149          1           0        9.755735   -3.593587    5.659081
    150          1           0        1.697901   -1.250975   -1.517365
    151          1           0        2.056105   -0.752177    1.682584
 ---------------------------------------------------------------------

 SCF Done:  E(RPBE1PBE) =  -4256.94802941     A.U. after   16 cycles

 Excitation energies and oscillator strengths:

 Excited State   1:      Singlet-A      1.9093 eV  649.38 nm  f=0.6206  <S**2>=0.000
     319 -> 320        0.69778
     319 -> 321       -0.10708
 This state for optimization and/or second-order correction.
 Total Energy, E(TD-HF/TD-DFT) =  -4256.87786489
 Copying the excited state density for this state as the 1-particle RhoCI density.

 Excited State   2:      Singlet-A      2.0019 eV  619.34 nm  f=0.2468  <S**2>=0.000
     318 -> 320        0.70067

 Excited State   3:      Singlet-A      2.1793 eV  568.92 nm  f=0.1986  <S**2>=0.000
     317 -> 320        0.69779

 Excited State   4:      Singlet-A      2.5528 eV  485.68 nm  f=0.1451  <S**2>=0.000
     316 -> 320        0.24648
     316 -> 321       -0.10788
     319 -> 320        0.10289
     319 -> 321        0.63931

 Excited State   5:      Singlet-A      2.6830 eV  462.12 nm  f=0.2691  <S**2>=0.000
     316 -> 320        0.39377
     318 -> 321        0.55244
     319 -> 321       -0.15441

 Excited State   6:      Singlet-A      2.7552 eV  449.99 nm  f=0.2874  <S**2>=0.000
     316 -> 320        0.48584
     317 -> 321        0.17026
     318 -> 321       -0.41689
     319 -> 321       -0.19988

 Excited State   7:      Singlet-A      2.9355 eV  422.36 nm  f=0.0143  <S**2>=0.000
     316 -> 320       -0.14318
     317 -> 321        0.67126

 Excited State   8:      Singlet-A      3.1230 eV  397.00 nm  f=0.0392  <S**2>=0.000
     309 -> 320        0.37403
     309 -> 321       -0.15502
     310 -> 320        0.39879
     310 -> 321       -0.15353
     311 -> 320        0.27740
     311 -> 321       -0.11279
     316 -> 320       -0.10361

 Excited State   9:      Singlet-A      3.3169 eV  373.79 nm  f=0.0265  <S**2>=0.000
     315 -> 320        0.63487
     319 -> 322        0.23995

 Excited State  10:      Singlet-A      3.3705 eV  367.85 nm  f=0.2319  <S**2>=0.000
     316 -> 321        0.60665
     319 -> 322        0.26872
     319 -> 323        0.11037

 The electronic state is 1-A.
 Alpha  occ. eigenvalues --  -89.06000 -19.24461 -19.23787 -19.23736 -19.23687
 Alpha  occ. eigenvalues --  -19.23580 -19.23303 -19.23269 -19.18498 -14.41859
 Alpha  occ. eigenvalues --  -14.41565 -14.41276 -14.39012 -14.38873 -14.36469
 Alpha  occ. eigenvalues --  -10.35680 -10.29063 -10.28997 -10.28983 -10.28847
 Alpha  occ. eigenvalues --  -10.28571 -10.28557 -10.28364 -10.28143 -10.27970
 Alpha  occ. eigenvalues --  -10.27942 -10.27846 -10.27774 -10.27510 -10.27510
 Alpha  occ. eigenvalues --  -10.27475 -10.27403 -10.27249 -10.27061 -10.26916
 Alpha  occ. eigenvalues --  -10.26717 -10.26674 -10.26644 -10.26588 -10.26574
 Alpha  occ. eigenvalues --  -10.26545 -10.26509 -10.26287 -10.26164 -10.26139
 Alpha  occ. eigenvalues --  -10.25782 -10.24955 -10.24448 -10.24169 -10.23789
 Alpha  occ. eigenvalues --  -10.23333 -10.23252 -10.23248 -10.23245 -10.23212
 Alpha  occ. eigenvalues --  -10.23194 -10.23182 -10.23151 -10.23131 -10.23130
 Alpha  occ. eigenvalues --  -10.23120 -10.23104 -10.23100 -10.23057 -10.23031
 Alpha  occ. eigenvalues --  -10.22979 -10.22978 -10.22867 -10.22817 -10.22779
 Alpha  occ. eigenvalues --  -10.22755 -10.22729 -10.22725 -10.22718 -10.22693
 Alpha  occ. eigenvalues --  -10.22680 -10.22663 -10.22619 -10.22615 -10.22563
 Alpha  occ. eigenvalues --  -10.22436 -10.22399 -10.22388 -10.22299 -10.22286
 Alpha  occ. eigenvalues --  -10.22222 -10.22177 -10.22118 -10.22116 -10.21876
 Alpha  occ. eigenvalues --  -10.21836  -8.04371  -5.98024  -5.97654  -5.97391
 Alpha  occ. eigenvalues --   -1.13919  -1.10251  -1.10195  -1.10158  -1.10044
 Alpha  occ. eigenvalues --   -1.09769  -1.09744  -1.04606  -1.01302  -0.99867
 Alpha  occ. eigenvalues --   -0.99639  -0.99343  -0.94301  -0.92607  -0.92016
 Alpha  occ. eigenvalues --   -0.89724  -0.89004  -0.88941  -0.88893  -0.88581
 Alpha  occ. eigenvalues --   -0.88523  -0.88370  -0.87039  -0.86854  -0.86444
 Alpha  occ. eigenvalues --   -0.85075  -0.81336  -0.81268  -0.79508  -0.79410
 Alpha  occ. eigenvalues --   -0.79176  -0.79113  -0.79021  -0.78225  -0.78193
 Alpha  occ. eigenvalues --   -0.78062  -0.78018  -0.77849  -0.77740  -0.77586
 Alpha  occ. eigenvalues --   -0.77317  -0.77062  -0.76949  -0.76788  -0.76514
 Alpha  occ. eigenvalues --   -0.75666  -0.74593  -0.73887  -0.72926  -0.72845
 Alpha  occ. eigenvalues --   -0.72480  -0.71157  -0.71133  -0.70859  -0.69543
 Alpha  occ. eigenvalues --   -0.68075  -0.66666  -0.65651  -0.64837  -0.64710
 Alpha  occ. eigenvalues --   -0.64618  -0.64458  -0.64264  -0.64037  -0.63681
 Alpha  occ. eigenvalues --   -0.63506  -0.63338  -0.63155  -0.62735  -0.62191
 Alpha  occ. eigenvalues --   -0.61895  -0.61781  -0.61674  -0.61363  -0.60484
 Alpha  occ. eigenvalues --   -0.59497  -0.59125  -0.58693  -0.57881  -0.56598
 Alpha  occ. eigenvalues --   -0.56426  -0.56358  -0.56206  -0.56069  -0.56023
 Alpha  occ. eigenvalues --   -0.55761  -0.55532  -0.54869  -0.54690  -0.54537
 Alpha  occ. eigenvalues --   -0.53770  -0.53539  -0.53159  -0.52809  -0.52243
 Alpha  occ. eigenvalues --   -0.51376  -0.51254  -0.51033  -0.50919  -0.50373
 Alpha  occ. eigenvalues --   -0.50067  -0.50006  -0.49579  -0.49292  -0.49089
 Alpha  occ. eigenvalues --   -0.49051  -0.48978  -0.48890  -0.48620  -0.48586
 Alpha  occ. eigenvalues --   -0.48495  -0.48055  -0.47588  -0.47318  -0.47015
 Alpha  occ. eigenvalues --   -0.46909  -0.46897  -0.46818  -0.46744  -0.46509
 Alpha  occ. eigenvalues --   -0.46419  -0.46131  -0.45813  -0.45403  -0.45329
 Alpha  occ. eigenvalues --   -0.45285  -0.44971  -0.44765  -0.44645  -0.44535
 Alpha  occ. eigenvalues --   -0.44436  -0.44295  -0.44185  -0.44073  -0.44065
 Alpha  occ. eigenvalues --   -0.43970  -0.43721  -0.43579  -0.43534  -0.43467
 Alpha  occ. eigenvalues --   -0.43295  -0.43184  -0.43094  -0.43066  -0.42663
 Alpha  occ. eigenvalues --   -0.42515  -0.42418  -0.41784  -0.41458  -0.40923
 Alpha  occ. eigenvalues --   -0.40655  -0.40599  -0.40445  -0.40252  -0.40175
 Alpha  occ. eigenvalues --   -0.40152  -0.40129  -0.40048  -0.39935  -0.39745
 Alpha  occ. eigenvalues --   -0.39641  -0.39558  -0.39188  -0.38697  -0.38504
 Alpha  occ. eigenvalues --   -0.38425  -0.38216  -0.38132  -0.38050  -0.37802
 Alpha  occ. eigenvalues --   -0.37793  -0.37572  -0.37436  -0.37307  -0.36772
 Alpha  occ. eigenvalues --   -0.36545  -0.35950  -0.35779  -0.35359  -0.35294
 Alpha  occ. eigenvalues --   -0.35107  -0.34968  -0.34781  -0.34741  -0.34704
 Alpha  occ. eigenvalues --   -0.34630  -0.34554  -0.34486  -0.34436  -0.34358
 Alpha  occ. eigenvalues --   -0.34277  -0.34070  -0.33993  -0.33730  -0.33643
 Alpha  occ. eigenvalues --   -0.32519  -0.32122  -0.31186  -0.30976  -0.30320
 Alpha  occ. eigenvalues --   -0.29295  -0.27889  -0.27828  -0.27691  -0.27584
 Alpha  occ. eigenvalues --   -0.27336  -0.27251  -0.27169  -0.27053  -0.26811
 Alpha  occ. eigenvalues --   -0.26786  -0.26639  -0.25998  -0.25492  -0.25378
 Alpha  occ. eigenvalues --   -0.25247  -0.24603  -0.24508  -0.24148  -0.23843
 Alpha  occ. eigenvalues --   -0.21400  -0.19382  -0.18745  -0.18297
 Alpha virt. eigenvalues --   -0.09883  -0.07161  -0.03651  -0.02554  -0.02337
 Alpha virt. eigenvalues --   -0.02207  -0.01838  -0.00760  -0.00655  -0.00567
 Alpha virt. eigenvalues --   -0.00400  -0.00345  -0.00295  -0.00164   0.00051

 Mulliken charges:
               1
     1  N   -0.550155
     2  C    0.199355
     3  C   -0.126843
     4  C   -0.114204
     5  C    0.007747
     6  C   -0.020912
     7  C   -0.127278
     8  C    0.052886
     9  C   -0.067967
    10  C   -0.137129
    11  C    0.180547
    12  C   -0.098776
    13  C   -0.067006
    14  C    0.058561
    15  C   -0.066765
    16  C   -0.096133
    17  C    0.180457
    18  C   -0.139735
    19  C   -0.073314
    20  H    0.129827
    21  H    0.109522
    22  C   -0.328110
    23  H    0.135062
    24  H    0.129527
    25  H    0.120816
    26  H    0.121671
    27  O   -0.359257
    28  H    0.116664
    29  H    0.117262
    30  H    0.122597
    31  H    0.118711
    32  O   -0.358517
    33  H    0.120741
    34  H    0.117271
    35  C    0.234147
    36  C    0.255163
    37  C   -0.358673
    38  S    0.400736
    39  C    0.034197
    40  C   -0.118939
    41  C   -0.073836
    42  C   -0.101497
    43  C   -0.055229
    44  C   -0.031710
    45  C    0.060821
    46  C   -0.223837
    47  C    0.482242
    48  O   -0.358046
    49  O   -0.334952
    50  N   -0.401110
    51  N   -0.417053
    52  H    0.109793
    53  H    0.102874
    54  H    0.135211
    55  H    0.150809
    56  H    0.134003
    57  C    0.102733
    58  H    0.260950
    59  N   -0.285366
    60  C    0.172759
    61  C    0.194537
    62  C   -0.184561
    63  C   -0.040063
    64  C   -0.037891
    65  C   -0.186395
    66  C   -0.037277
    67  C   -0.113042
    68  C    0.199828
    69  C   -0.116953
    70  C   -0.112407
    71  C    0.193054
    72  C   -0.117159
    73  C   -0.038047
    74  H    0.110591
    75  H    0.133998
    76  H    0.129543
    77  H    0.128051
    78  H    0.130128
    79  H    0.109500
    80  C   -0.178031
    81  C   -0.177844
    82  H    0.144266
    83  H    0.127156
    84  H    0.126734
    85  H    0.126842
    86  H    0.127005
    87  H    0.143500
    88  N   -0.549377
    89  C   -0.064287
    90  C    0.046106
    91  C   -0.061776
    92  C   -0.097415
    93  C    0.181285
    94  C   -0.137323
    95  H    0.120177
    96  H    0.117363
    97  H    0.115813
    98  O   -0.358322
    99  H    0.118142
   100  C   -0.070108
   101  C    0.053922
   102  C   -0.062884
   103  C   -0.096456
   104  C    0.180320
   105  C   -0.140389
   106  H    0.123617
   107  H    0.115292
   108  O   -0.358837
   109  H    0.118717
   110  C   -0.177672
   111  H    0.143722
   112  H    0.125117
   113  H    0.127721
   114  N   -0.552345
   115  C   -0.067069
   116  C    0.052202
   117  C   -0.067558
   118  C   -0.137773
   119  C    0.179949
   120  C   -0.099467
   121  H    0.116345
   122  H    0.119998
   123  H    0.116897
   124  O   -0.359585
   125  H    0.120956
   126  C   -0.073116
   127  C    0.060990
   128  C   -0.067064
   129  C   -0.096515
   130  C    0.179819
   131  C   -0.139582
   132  H    0.120168
   133  H    0.120640
   134  H    0.116286
   135  O   -0.359164
   136  H    0.117717
   137  C   -0.177568
   138  C   -0.177884
   139  H    0.143553
   140  H    0.126180
   141  H    0.126712
   142  H    0.126213
   143  H    0.127104
   144  H    0.143656
   145  H    0.119870
   146  C   -0.177802
   147  H    0.143487
   148  H    0.126175
   149  H    0.126860
   150  H    0.119672
   151  H    0.120208
 Sum of Mulliken charges =  -0.00000

 Dipole moment (field-independent basis, Debye):
    X=             -7.0127    Y=            -10.0520    Z=             -3.7441  Tot=             12.8156
 Quadrupole moment (field-independent basis, Debye-Ang):
   XX=           -447.7393   YY=           -511.6700   ZZ=           -477.0832
   XY=            -50.8963   XZ=              6.0037   YZ=              8.7956

 Normal termination of Gaussian 16 at Thu Jul 29 00:07:30 2021.
