 Gaussian 16, Revision B.01,
 Gaussian 16:  ES64L-G16RevB.01 20-Dec-2017

 ----------------------------------------
 #N TD(NStates=10) CAM-B3lYP/6-311+G(d,p)
 ----------------------------------------

 ----
 Name
 ----
 Symbolic Z-matrix:
 Charge =  0 Multiplicity = 1

                         Standard orientation:
 ---------------------------------------------------------------------
 Center     Atomic      Atomic             Coordinates (Angstroms)
 Number     Number       Type             X           Y           Z
 ---------------------------------------------------------------------
      1          6           0        7.854865    6.024058    0.403487
      2          8           0        6.930098    5.445576   -0.507285
      3          6           0        6.551439    4.151509   -0.314600
      4          6           0        7.013084    3.328698    0.716028
      5          6           0        6.548922    2.017843    0.819648
      6          6           0        5.639310    1.501770   -0.102244
      7          7           0        5.195402    0.146676   -0.004616
      8          6           0        3.831426   -0.166409   -0.016121
      9          6           0        3.376849   -1.423317   -0.463194
     10          6           0        2.028745   -1.730473   -0.469197
     11          6           0        1.058040   -0.808007   -0.035304
     12          6           0        1.519446    0.446258    0.403126
     13          6           0        2.865936    0.763307    0.416735
     14          1           0        3.182701    1.731893    0.780526
     15          1           0        0.810972    1.178648    0.774162
     16          6           0       -0.355386   -1.156756   -0.040233
     17         16           0       -1.598290    0.071945   -0.059677
     18          6           0       -2.889919   -1.128032   -0.041858
     19          6           0       -2.339225   -2.399356   -0.041965
     20          6           0       -0.933701   -2.413395   -0.039446
     21          1           0       -0.351646   -3.324188   -0.004324
     22          1           0       -2.952581   -3.286838   -0.029235
     23          6           0       -4.274635   -0.725308   -0.027824
     24          6           0       -4.663327    0.611667    0.041976
     25          6           0       -5.998093    1.048696    0.058794
     26          6           0       -7.081872    0.178411    0.008897
     27          6           0       -6.743828   -1.219490   -0.067869
     28          6           0       -5.365060   -1.673476   -0.086099
     29          7           0       -5.257420   -3.000011   -0.162402
     30         16           0       -6.774991   -3.613123   -0.206354
     31          7           0       -7.627557   -2.214635   -0.131885
     32          6           0       -8.479634    0.528438    0.026300
     33          6           0       -9.115721    1.732156    0.098297
     34          6           0       -8.432816    2.976899    0.214181
     35          7           0       -7.859740    3.978005    0.290750
     36          6           0      -10.612934    1.843960    0.167833
     37          8           0      -11.170170    2.794364    0.639908
     38          8           0      -11.326407    0.795559   -0.320491
     39          1           0      -10.764773    0.217454   -0.849414
     40          1           0       -9.119864   -0.348824    0.005237
     41          1           0       -6.169390    2.114206    0.118876
     42          1           0       -3.896732    1.375424    0.092792
     43          1           0        1.717481   -2.694805   -0.853227
     44          1           0        4.091832   -2.151590   -0.822929
     45          6           0        6.182485   -0.880510    0.109488
     46          6           0        7.243138   -0.949132   -0.792860
     47          6           0        8.226109   -1.931155   -0.674294
     48          6           0        8.146178   -2.876241    0.351647
     49          6           0        7.080856   -2.813495    1.259788
     50          6           0        6.119176   -1.823881    1.145719
     51          1           0        5.306643   -1.776838    1.861042
     52          1           0        7.039224   -3.545811    2.056842
     53          8           0        9.042096   -3.882022    0.555863
     54          6           0       10.140418   -4.002717   -0.337475
     55          1           0        9.804647   -4.183713   -1.364656
     56          1           0       10.777211   -3.111220   -0.314833
     57          1           0       10.712574   -4.861240    0.009852
     58          1           0        9.036138   -1.951624   -1.390748
     59          1           0        7.307425   -0.223104   -1.594546
     60          6           0        5.191810    2.330782   -1.141623
     61          6           0        5.633098    3.639345   -1.240941
     62          1           0        5.292087    4.286042   -2.040189
     63          1           0        4.491923    1.941314   -1.871452
     64          1           0        6.906439    1.386992    1.624756
     65          1           0        7.721313    3.693910    1.447422
     66          1           0        8.009898    7.045443    0.060366
     67          1           0        7.455829    6.042205    1.423759
     68          1           0        8.812336    5.491153    0.396740
 ---------------------------------------------------------------------

 SCF Done:  E(RCAM-B3LYP) =  -2625.86355486     A.U. after   20 cycles

 Excitation energies and oscillator strengths:

 Excited State   1:      Singlet-A      2.2968 eV  539.80 nm  f=1.1375  <S**2>=0.000
     159 -> 161       -0.33468
     160 -> 161        0.60262
     160 -> 163        0.10791
 This state for optimization and/or second-order correction.
 Total Energy, E(TD-HF/TD-DFT) =  -2625.77914735
 Copying the excited state density for this state as the 1-particle RhoCI density.

 Excited State   2:      Singlet-A      3.1964 eV  387.89 nm  f=0.0598  <S**2>=0.000
     157 -> 161       -0.24040
     159 -> 161        0.55513
     160 -> 161        0.32410

 Excited State   3:      Singlet-A      3.6493 eV  339.75 nm  f=0.5994  <S**2>=0.000
     157 -> 162        0.11086
     159 -> 162       -0.33415
     159 -> 163        0.10328
     160 -> 162        0.43965
     160 -> 163       -0.36200

 Excited State   4:      Singlet-A      3.8781 eV  319.70 nm  f=0.2220  <S**2>=0.000
     151 -> 161       -0.12935
     154 -> 161        0.10760
     157 -> 161       -0.11319
     157 -> 162        0.10198
     159 -> 162       -0.24497
     159 -> 163       -0.12296
     160 -> 161       -0.11335
     160 -> 162        0.26279
     160 -> 163        0.48585

 Excited State   5:      Singlet-A      3.9823 eV  311.34 nm  f=0.0226  <S**2>=0.000
     159 -> 164        0.14238
     160 -> 164        0.64386

 Excited State   6:      Singlet-A      4.0659 eV  304.94 nm  f=0.0079  <S**2>=0.000
     151 -> 161       -0.12682
     152 -> 161        0.17822
     154 -> 161        0.36466
     155 -> 161        0.18217
     156 -> 161       -0.22134
     157 -> 161       -0.35344
     159 -> 161       -0.17045
     160 -> 163       -0.17028

 Excited State   7:      Singlet-A      4.1622 eV  297.88 nm  f=0.0458  <S**2>=0.000
     152 -> 161       -0.26603
     154 -> 161        0.43763
     156 -> 161       -0.21689
     157 -> 161        0.34864
     159 -> 161        0.13426

 Excited State   8:      Singlet-A      4.3247 eV  286.69 nm  f=0.0816  <S**2>=0.000
     151 -> 161        0.60359
     152 -> 161        0.11933
     157 -> 161       -0.11836
     159 -> 163        0.11702
     160 -> 168        0.12001

 Excited State   9:      Singlet-A      4.4822 eV  276.62 nm  f=0.1165  <S**2>=0.000
     159 -> 164        0.11219
     159 -> 167        0.14632
     160 -> 167        0.49437
     160 -> 168        0.18460
     160 -> 169       -0.20185
     160 -> 172       -0.21658

 Excited State  10:      Singlet-A      4.5894 eV  270.15 nm  f=0.1251  <S**2>=0.000
     153 -> 161       -0.15180
     153 -> 163       -0.11829
     156 -> 161        0.18246
     156 -> 163        0.12429
     158 -> 161       -0.12970
     159 -> 164       -0.14259
     159 -> 167        0.10213
     160 -> 167        0.27737
     160 -> 170       -0.14053
     160 -> 172        0.39162
     160 -> 174        0.14424

 The electronic state is 1-A.
 Alpha  occ. eigenvalues --  -89.03396 -88.96035 -19.25579 -19.23766 -19.23677
 Alpha  occ. eigenvalues --  -19.19535 -14.44997 -14.44798 -14.42580 -14.39918
 Alpha  occ. eigenvalues --  -10.40217 -10.33220 -10.33167 -10.32206 -10.32134
 Alpha  occ. eigenvalues --  -10.31879 -10.31690 -10.31533 -10.30938 -10.30859
 Alpha  occ. eigenvalues --  -10.30840 -10.30625 -10.30080 -10.29926 -10.29749
 Alpha  occ. eigenvalues --  -10.29581 -10.29531 -10.29363 -10.28365 -10.27288
 Alpha  occ. eigenvalues --  -10.26920 -10.26541 -10.26517 -10.26350 -10.26299
 Alpha  occ. eigenvalues --  -10.26293 -10.26253 -10.26238 -10.26184 -10.26113
 Alpha  occ. eigenvalues --  -10.25792 -10.25714 -10.25694 -10.25662  -8.11873
 Alpha  occ. eigenvalues --   -8.04945  -6.08392  -6.07786  -6.07549  -6.01346
 Alpha  occ. eigenvalues --   -6.00952  -6.00584  -1.20348  -1.16329  -1.16246
 Alpha  occ. eigenvalues --   -1.13598  -1.12160  -1.06308  -1.00934  -1.00602
 Alpha  occ. eigenvalues --   -0.99536  -0.97710  -0.95755  -0.95673  -0.93920
 Alpha  occ. eigenvalues --   -0.93263  -0.88874  -0.87447  -0.86616  -0.85998
 Alpha  occ. eigenvalues --   -0.85033  -0.84926  -0.84500  -0.83392  -0.83037
 Alpha  occ. eigenvalues --   -0.81316  -0.79277  -0.78415  -0.76684  -0.74703
 Alpha  occ. eigenvalues --   -0.72575  -0.71962  -0.71805  -0.71304  -0.70565
 Alpha  occ. eigenvalues --   -0.70298  -0.69244  -0.68323  -0.66753  -0.66185
 Alpha  occ. eigenvalues --   -0.64775  -0.63969  -0.62892  -0.62816  -0.61563
 Alpha  occ. eigenvalues --   -0.61048  -0.60139  -0.59747  -0.59189  -0.58125
 Alpha  occ. eigenvalues --   -0.57896  -0.56564  -0.55704  -0.55529  -0.55437
 Alpha  occ. eigenvalues --   -0.54780  -0.54440  -0.54167  -0.53390  -0.53264
 Alpha  occ. eigenvalues --   -0.53102  -0.52872  -0.52013  -0.51097  -0.50990
 Alpha  occ. eigenvalues --   -0.50700  -0.50683  -0.50301  -0.49519  -0.49409
 Alpha  occ. eigenvalues --   -0.48960  -0.48463  -0.48204  -0.47484  -0.47332
 Alpha  occ. eigenvalues --   -0.47163  -0.46925  -0.46578  -0.46471  -0.46393
 Alpha  occ. eigenvalues --   -0.45727  -0.45108  -0.44866  -0.44530  -0.44277
 Alpha  occ. eigenvalues --   -0.43927  -0.43239  -0.43036  -0.41684  -0.41322
 Alpha  occ. eigenvalues --   -0.40841  -0.40731  -0.40702  -0.40601  -0.40513
 Alpha  occ. eigenvalues --   -0.40303  -0.39143  -0.38308  -0.37356  -0.36317
 Alpha  occ. eigenvalues --   -0.34613  -0.34028  -0.33365  -0.32784  -0.32637
 Alpha  occ. eigenvalues --   -0.32292  -0.30682  -0.29992  -0.27161  -0.23643
 Alpha virt. eigenvalues --   -0.09851  -0.04634  -0.02451   0.00036   0.01525
 Alpha virt. eigenvalues --    0.01655   0.01721   0.01820   0.02076   0.02342
 Alpha virt. eigenvalues --    0.02457   0.02640   0.02751   0.03073   0.03381

 Mulliken charges:
               1
     1  C   -0.252022
     2  O   -0.174201
     3  C   -0.442581
     4  C    0.136014
     5  C    0.009657
     6  C   -0.445401
     7  N    0.766583
     8  C    0.249846
     9  C   -0.225339
    10  C   -0.404875
    11  C    0.619242
    12  C   -0.275112
    13  C   -0.289504
    14  H    0.159634
    15  H    0.139340
    16  C   -0.147383
    17  S   -0.873154
    18  C    0.592154
    19  C   -0.296317
    20  C   -0.240286
    21  H    0.135191
    22  H    0.171902
    23  C    0.596994
    24  C   -0.423681
    25  C   -0.741901
    26  C    0.445239
    27  C   -0.184044
    28  C   -0.146258
    29  N   -0.085175
    30  S    0.638770
    31  N   -0.132219
    32  C    0.264550
    33  C    1.259765
    34  C   -1.351474
    35  N   -0.140260
    36  C   -0.082381
    37  O   -0.253791
    38  O   -0.160465
    39  H    0.233275
    40  H    0.145981
    41  H    0.177596
    42  H    0.147979
    43  H    0.130541
    44  H    0.158463
    45  C   -0.410740
    46  C    0.010009
    47  C    0.127519
    48  C   -0.444022
    49  C   -0.184518
    50  C    0.010344
    51  H    0.148652
    52  H    0.141915
    53  O   -0.174749
    54  C   -0.252545
    55  H    0.148177
    56  H    0.147634
    57  H    0.163906
    58  H    0.134807
    59  H    0.146608
    60  C    0.033011
    61  C   -0.189730
    62  H    0.142545
    63  H    0.149168
    64  H    0.146404
    65  H    0.134787
    66  H    0.164207
    67  H    0.148688
    68  H    0.147032
 Sum of Mulliken charges =  -0.00000

 Dipole moment (field-independent basis, Debye):
    X=             12.7392    Y=             -5.8241    Z=             -1.6242  Tot=             14.1013
 Quadrupole moment (field-independent basis, Debye-Ang):
   XX=           -305.6199   YY=           -272.7837   ZZ=           -268.8673
   XY=             65.6627   XZ=             16.3625   YZ=              5.8443

 Normal termination of Gaussian 16 at Sat Jun 12 00:56:33 2021.
