 Gaussian 16, Revision C.01,
 Gaussian 16:  ES64L-G16RevC.01  3-Jul-2019

 ------------------------------------
 #N TD(NStates=10) PBEPBE/6-311G(d,p)
 ------------------------------------

 ---------
 C25H20ON4
 ---------
 Symbolic Z-matrix:
 Charge =  0 Multiplicity = 1

                         Standard orientation:
 ---------------------------------------------------------------------
 Center     Atomic      Atomic             Coordinates (Angstroms)
 Number     Number       Type             X           Y           Z
 ---------------------------------------------------------------------
      1          6           0       -4.631031    5.361136   -2.411965
      2          6           0        0.952221    5.740697   -1.473753
      3          6           0       -0.146433   -0.445370    0.147030
      4          6           0       -0.947089    0.692174   -0.068337
      5          6           0       -2.359020    0.429567   -0.016011
      6          6           0       -2.679179   -0.908980    0.260187
      7          1           0       -5.288656   -4.617098    1.156981
      8          1           0        0.860507    7.799804   -0.847875
      9          6           0       -2.784972    2.629555   -0.531279
     10          6           0       -1.353809    2.914069   -0.481952
     11          6           0        7.824722   -5.776095   -3.623969
     12          6           0        8.820585    3.045063    3.915736
     13          6           0       -3.958167   -1.574327    0.389483
     14          6           0       -5.176556   -0.890741    0.151509
     15          1           0       -7.291372   -0.958003    0.072563
     16          6           0       -4.043530   -2.938276    0.753936
     17          1           0       -5.141231    0.149716   -0.135119
     18          6           0        1.297547   -0.598599    0.150351
     19          6           0        2.162457    0.505724    0.306889
     20          6           0        3.536785    0.351629    0.317724
     21          6           0        4.132468   -0.918346    0.171651
     22          6           0        3.273532   -2.027315    0.018133
     23          6           0        1.901525   -1.865332    0.006245
     24          1           0        1.739779    1.494807    0.407860
     25          1           0        4.164243    1.225272    0.435011
     26          6           0       -5.262430   -3.570822    0.872697
     27          1           0        3.691571   -3.018690   -0.094374
     28          1           0        1.284605   -2.747058   -0.127164
     29          6           0        0.404280    6.818861   -0.779223
     30          6           0       -0.731085    6.628444    0.007254
     31          6           0       -6.479154   -2.889616    0.638832
     32          1           0       -6.588008    6.143747   -1.971527
     33          6           0       -6.394931   -1.527437    0.271705
     34          6           0        6.371743   -0.113043    0.805884
     35          6           0        7.424824    0.474129    0.091519
     36          6           0        8.271763    1.383955    0.703834
     37          6           0        8.078764    1.742664    2.045104
     38          6           0        7.027087    1.165339    2.763738
     39          6           0        6.191132    0.237049    2.144271
     40          1           0        7.579146    0.209308   -0.947690
     41          1           0        9.088486    1.839686    0.156997
     42          6           0       -7.695069   -3.647394    0.790412
     43          1           0        6.857048    1.415032    3.802069
     44          1           0        5.387599   -0.216572    2.712302
     45          6           0        6.141089   -2.190242   -0.470033
     46          6           0        7.052582   -2.993299    0.228903
     47          6           0        7.680930   -4.057226   -0.398404
     48          6           0        7.402670   -4.356297   -1.739342
     49          6           0        6.491011   -3.562645   -2.442798
     50          6           0        5.877831   -2.482852   -1.808608
     51          1           0        7.269510   -2.776009    1.267963
     52          1           0        8.387370   -4.680452    0.136639
     53          1           0        6.261671   -3.761504   -3.480711
     54          1           0        5.184685   -1.863495   -2.365415
     55          6           0       -9.015144   -3.303944    0.695865
     56          1           0       -2.717927    4.412890   -2.611118
     57          1           0       -5.148781    3.074038    0.663746
     58          1           0       -7.506319   -4.683242    1.059202
     59          1           0       -4.487420    5.987204   -3.285059
     60          1           0       -6.913955    4.681992    0.008889
     61          6           0       -1.326181    5.372509    0.088090
     62          1           0        0.798017    3.639362   -1.911234
     63          1           0        1.835597    5.880502   -2.086415
     64          6           0       -0.783844    4.283523   -0.607833
     65          6           0      -10.121801   -4.275787    0.951255
     66          1           0       -1.154853    7.458551    0.560742
     67          1           0       -2.205096    5.237183    0.706238
     68         16           0       -1.186602   -1.801887    0.445836
     69          7           0       -3.247730    1.425711   -0.272546
     70          7           0       -0.483638    1.946718   -0.288249
     71          7           0        5.519459   -1.074533    0.175518
     72          6           0        0.368612    4.480809   -1.381344
     73          6           0       -3.805550    3.643200   -0.914214
     74          6           0       -3.629759    4.472905   -2.029876
     75          6           0       -5.004933    3.721022   -0.192913
     76          6           0       -5.813238    5.444955   -1.677486
     77          6           0       -5.996733    4.623060   -0.565829
     78          1           0        8.446316   -6.647642   -3.819049
     79          1           0        6.774233   -6.034687   -3.789716
     80          1           0        8.113716   -4.965439   -4.300067
     81          1           0        9.616962    3.763855    4.097804
     82          1           0        7.852263    3.522568    4.095030
     83          1           0        8.939376    2.192469    4.591564
     84          8           0        8.064222   -5.426213   -2.261112
     85          8           0        8.959743    2.649126    2.551526
     86          1           0       -3.143257   -3.508059    0.950856
     87          8           0      -11.240290   -3.925952    1.237937
     88          8           0       -9.834414   -5.595084    0.867360
     89          6           0       -9.478038   -1.979660    0.450833
     90          7           0       -9.870299   -0.911276    0.245382
     91          1           0       -8.989770   -5.751540    0.426869
 ---------------------------------------------------------------------

 SCF Done:  E(RPBE-PBE) =  -2765.15412673     A.U. after   20 cycles

 Excitation energies and oscillator strengths:

 Excited State   1:      Singlet-A      1.3821 eV  897.09 nm  f=0.5533  <S**2>=0.000
     198 -> 200        0.15140
     199 -> 200        0.69021
 This state for optimization and/or second-order correction.
 Total Energy, E(TD-HF/TD-DFT) =  -2765.10333637
 Copying the excited state density for this state as the 1-particle RhoCI density.

 Excited State   2:      Singlet-A      1.7173 eV  721.98 nm  f=0.0348  <S**2>=0.000
     198 -> 200       -0.18712
     198 -> 201        0.10760
     199 -> 201        0.67046

 Excited State   3:      Singlet-A      2.1281 eV  582.61 nm  f=0.3067  <S**2>=0.000
     198 -> 200        0.63523
     198 -> 201        0.15278
     199 -> 200       -0.15660
     199 -> 201        0.15359

 Excited State   4:      Singlet-A      2.3147 eV  535.64 nm  f=0.0031  <S**2>=0.000
     197 -> 200        0.68657
     198 -> 201       -0.13898

 Excited State   5:      Singlet-A      2.3795 eV  521.05 nm  f=0.0175  <S**2>=0.000
     195 -> 200        0.36159
     196 -> 200        0.60517

 Excited State   6:      Singlet-A      2.4447 eV  507.16 nm  f=0.0857  <S**2>=0.000
     194 -> 200       -0.20036
     195 -> 200        0.37994
     196 -> 200       -0.21142
     198 -> 201        0.45876
     199 -> 202       -0.12144

 Excited State   7:      Singlet-A      2.5245 eV  491.13 nm  f=0.1861  <S**2>=0.000
     194 -> 200       -0.16655
     195 -> 200       -0.38767
     196 -> 200        0.23523
     198 -> 201        0.39816
     199 -> 202        0.26154

 Excited State   8:      Singlet-A      2.5957 eV  477.65 nm  f=0.1830  <S**2>=0.000
     195 -> 200        0.22002
     196 -> 200       -0.14604
     199 -> 202        0.61534

 Excited State   9:      Singlet-A      2.6760 eV  463.32 nm  f=0.0521  <S**2>=0.000
     193 -> 200        0.43980
     194 -> 200        0.50645
     198 -> 201        0.13665

 Excited State  10:      Singlet-A      2.7923 eV  444.02 nm  f=0.1932  <S**2>=0.000
     191 -> 200        0.10077
     193 -> 200        0.49771
     194 -> 200       -0.29370
     198 -> 201       -0.11442
     199 -> 203       -0.31107
     199 -> 204       -0.12110

 The electronic state is 1-A.
 Alpha  occ. eigenvalues --  -88.08551 -18.78909 -18.78850 -18.78439 -18.71721
 Alpha  occ. eigenvalues --  -14.03122 -13.99749 -13.99650 -13.96328 -10.00203
 Alpha  occ. eigenvalues --   -9.95389  -9.95331  -9.94586  -9.94465  -9.94397
 Alpha  occ. eigenvalues --   -9.94385  -9.93916  -9.93858  -9.93456  -9.93287
 Alpha  occ. eigenvalues --   -9.93214  -9.93088  -9.93036  -9.93028  -9.92656
 Alpha  occ. eigenvalues --   -9.91965  -9.90992  -9.90705  -9.90663  -9.90384
 Alpha  occ. eigenvalues --   -9.90246  -9.90156  -9.89920  -9.89861  -9.89760
 Alpha  occ. eigenvalues --   -9.89733  -9.89713  -9.89712  -9.89646  -9.89603
 Alpha  occ. eigenvalues --   -9.89344  -9.89287  -9.89262  -9.89223  -9.89132
 Alpha  occ. eigenvalues --   -9.89106  -9.89078  -9.89051  -9.89038  -9.89026
 Alpha  occ. eigenvalues --   -9.88916  -9.88906  -9.88879  -9.88847  -9.88769
 Alpha  occ. eigenvalues --   -9.88753  -9.88748  -7.72068  -5.74209  -5.73762
 Alpha  occ. eigenvalues --   -5.73467  -1.01169  -0.99371  -0.99315  -0.92976
 Alpha  occ. eigenvalues --   -0.91299  -0.90079  -0.84717  -0.82816  -0.82103
 Alpha  occ. eigenvalues --   -0.80142  -0.79600  -0.79463  -0.78995  -0.78606
 Alpha  occ. eigenvalues --   -0.77742  -0.75790  -0.72684  -0.72470  -0.71122
 Alpha  occ. eigenvalues --   -0.70435  -0.69795  -0.69512  -0.69355  -0.69141
 Alpha  occ. eigenvalues --   -0.68747  -0.68496  -0.68243  -0.68150  -0.66913
 Alpha  occ. eigenvalues --   -0.65698  -0.65264  -0.63142  -0.61715  -0.61117
 Alpha  occ. eigenvalues --   -0.59522  -0.57834  -0.57253  -0.57181  -0.57010
 Alpha  occ. eigenvalues --   -0.56380  -0.56240  -0.55741  -0.55186  -0.55040
 Alpha  occ. eigenvalues --   -0.54767  -0.54014  -0.53331  -0.52506  -0.51544
 Alpha  occ. eigenvalues --   -0.51290  -0.50374  -0.50292  -0.49793  -0.48861
 Alpha  occ. eigenvalues --   -0.48267  -0.48115  -0.47935  -0.46915  -0.45524
 Alpha  occ. eigenvalues --   -0.44805  -0.44418  -0.44090  -0.43971  -0.43222
 Alpha  occ. eigenvalues --   -0.43156  -0.42286  -0.42183  -0.41835  -0.41504
 Alpha  occ. eigenvalues --   -0.41360  -0.41221  -0.40664  -0.40462  -0.40304
 Alpha  occ. eigenvalues --   -0.40029  -0.39973  -0.39464  -0.39333  -0.39025
 Alpha  occ. eigenvalues --   -0.38952  -0.38794  -0.38629  -0.38428  -0.38235
 Alpha  occ. eigenvalues --   -0.38067  -0.37927  -0.37868  -0.37486  -0.37347
 Alpha  occ. eigenvalues --   -0.36742  -0.36108  -0.35967  -0.35693  -0.35463
 Alpha  occ. eigenvalues --   -0.35269  -0.34805  -0.34598  -0.34248  -0.34197
 Alpha  occ. eigenvalues --   -0.33757  -0.33373  -0.33162  -0.33115  -0.32999
 Alpha  occ. eigenvalues --   -0.32364  -0.31955  -0.31552  -0.31261  -0.30995
 Alpha  occ. eigenvalues --   -0.30768  -0.30636  -0.30405  -0.30176  -0.30141
 Alpha  occ. eigenvalues --   -0.29884  -0.29735  -0.29667  -0.28785  -0.28170
 Alpha  occ. eigenvalues --   -0.27448  -0.27253  -0.26953  -0.25546  -0.24830
 Alpha  occ. eigenvalues --   -0.24819  -0.24259  -0.24252  -0.24013  -0.23818
 Alpha  occ. eigenvalues --   -0.23494  -0.23218  -0.22643  -0.22271  -0.21467
 Alpha  occ. eigenvalues --   -0.21432  -0.21083  -0.19272  -0.16660
 Alpha virt. eigenvalues --   -0.12775  -0.10739  -0.07493  -0.06530  -0.06333
 Alpha virt. eigenvalues --   -0.05011  -0.04926  -0.04830  -0.04661  -0.04196
 Alpha virt. eigenvalues --   -0.04100  -0.03826  -0.03508  -0.02116  -0.01536

 Mulliken charges:
               1
     1  C   -0.094142
     2  C   -0.097378
     3  C   -0.324949
     4  C    0.212120
     5  C    0.230559
     6  C   -0.350164
     7  H    0.084562
     8  H    0.097961
     9  C    0.148727
    10  C    0.130254
    11  C   -0.190369
    12  C   -0.190576
    13  C    0.037674
    14  C   -0.018412
    15  H    0.121264
    16  C   -0.105601
    17  H    0.131253
    18  C    0.020335
    19  C   -0.013520
    20  C   -0.124961
    21  C    0.205449
    22  C   -0.117618
    23  C   -0.107138
    24  H    0.115707
    25  H    0.121164
    26  C   -0.079713
    27  H    0.119666
    28  H    0.098324
    29  C   -0.084778
    30  C   -0.095064
    31  C   -0.079152
    32  H    0.100400
    33  C   -0.051821
    34  C    0.025207
    35  C   -0.048494
    36  C   -0.090263
    37  C    0.159524
    38  C   -0.129062
    39  C   -0.044137
    40  H    0.102622
    41  H    0.106336
    42  C    0.012077
    43  H    0.112514
    44  H    0.107200
    45  C    0.023796
    46  C   -0.048652
    47  C   -0.090058
    48  C    0.159346
    49  C   -0.129937
    50  C   -0.046427
    51  H    0.102955
    52  H    0.106712
    53  H    0.112213
    54  H    0.107688
    55  C   -0.193350
    56  H    0.105831
    57  H    0.099402
    58  H    0.080434
    59  H    0.098074
    60  H    0.103736
    61  C   -0.020231
    62  H    0.095801
    63  H    0.097335
    64  C   -0.156409
    65  C    0.386881
    66  H    0.098480
    67  H    0.107463
    68  S    0.392617
    69  N   -0.355029
    70  N   -0.342416
    71  N   -0.480296
    72  C   -0.027135
    73  C   -0.156421
    74  C   -0.018689
    75  C   -0.026088
    76  C   -0.082801
    77  C   -0.095029
    78  H    0.144165
    79  H    0.128339
    80  H    0.128723
    81  H    0.143888
    82  H    0.129133
    83  H    0.128621
    84  O   -0.307666
    85  O   -0.307797
    86  H    0.098731
    87  O   -0.267753
    88  O   -0.262839
    89  C    0.070257
    90  N   -0.233574
    91  H    0.234391
 Sum of Mulliken charges =  -0.00000

 Dipole moment (field-independent basis, Debye):
    X=             16.0249    Y=              0.7862    Z=             -1.4449  Tot=             16.1091
 Quadrupole moment (field-independent basis, Debye-Ang):
   XX=           -446.8298   YY=           -286.4664   ZZ=           -309.0229
   XY=            -28.5147   XZ=             15.8006   YZ=             18.1968

 Normal termination of Gaussian 16 at Tue Jul 27 15:11:37 2021.
