 Gaussian 09, Revision D.01,
 Gaussian 09:  ES64L-G09RevD.01 24-Apr-2013

 ---------------------------------------
 #N BHandHLYP/6-311G(d,p) TD(NStates=10)
 ---------------------------------------

 ----
 Name
 ----
 Symbolic Z-matrix:
 Charge =  0 Multiplicity = 1

                         Standard orientation:
 ---------------------------------------------------------------------
 Center     Atomic      Atomic             Coordinates (Angstroms)
 Number     Number       Type             X           Y           Z
 ---------------------------------------------------------------------
      1          6           0       -1.583874    0.556693   -0.164710
      2          6           0       -2.616567    1.501336   -0.011816
      3          6           0       -3.942989    1.109980    0.076132
      4          6           0       -1.955555   -0.799337   -0.216835
      5          6           0       -3.278111   -1.195779   -0.112784
      6          6           0       -4.302513   -0.246165    0.031800
      7          7           0       -5.653743   -0.644860    0.129870
      8          6           0       -6.555670    0.066752    0.971486
      9          6           0       -7.838060    0.397737    0.515342
     10          6           0       -8.722623    1.080689    1.344026
     11          6           0       -8.340848    1.457342    2.630424
     12          6           0       -7.063338    1.134339    3.084793
     13          6           0       -6.178212    0.437140    2.268997
     14          6           0       -6.131217   -1.761390   -0.614412
     15          6           0       -6.956415   -2.716346   -0.006713
     16          6           0       -7.433142   -3.798766   -0.739167
     17          6           0       -7.084546   -3.955554   -2.079443
     18          6           0       -6.258475   -3.010070   -2.684947
     19          6           0       -5.790828   -1.915720   -1.964668
     20          6           0       -0.185482    0.962340   -0.256540
     21          6           0        0.356566    2.192127   -0.564926
     22          8           0       -0.390562    3.304695   -0.846805
     23          6           0        0.356626    4.327160   -1.518002
     24          6           0        1.682531    4.548965   -0.817823
     25          8           0        2.477808    3.353448   -0.866145
     26          6           0        1.780564    2.218376   -0.571879
     27          6           0        2.372844    1.004615   -0.273638
     28         16           0        1.109661   -0.179762    0.039166
     29          6           0        3.775522    0.647382   -0.180919
     30          6           0        4.799792    1.544768   -0.555334
     31          6           0        6.128149    1.179214   -0.455261
     32          6           0        6.523026   -0.090680    0.016352
     33          6           0        7.936061   -0.366375    0.079998
     34          6           0        8.636656   -1.464719    0.478523
     35          6           0        8.065263   -2.673643    0.956033
     36          7           0        7.689718   -3.694698    1.356037
     37          6           0       10.140658   -1.395407    0.408212
     38          8           0       10.813696   -2.496137    0.806598
     39          8           0       10.731511   -0.422698    0.021469
     40          6           0        5.497845   -0.988283    0.387471
     41          6           0        4.170822   -0.625996    0.290747
     42          1           0       -2.374338    2.553585    0.028009
     43          1           0       -4.714250    1.862200    0.184040
     44          1           0       -1.195538   -1.562581   -0.341151
     45          1           0       -3.526140   -2.248973   -0.147733
     46          1           0       -8.135862    0.114688   -0.486946
     47          1           0       -9.711776    1.329472    0.975962
     48          1           0       -9.030505    1.994060    3.271253
     49          1           0       -6.756134    1.413000    4.086683
     50          1           0       -5.191399    0.176549    2.631921
     51          1           0       -7.221172   -2.603789    1.037568
     52          1           0       -8.070273   -4.529970   -0.254258
     53          1           0       -7.452466   -4.803421   -2.645213
     54          1           0       -5.986196   -3.115491   -3.729222
     55          1           0       -5.160487   -1.175801   -2.442754
     56          1           0       -0.259860    5.225547   -1.485974
     57          1           0        0.520780    4.037932   -2.562391
     58          1           0        1.518767    4.833477    0.227260
     59          1           0        2.269554    5.321118   -1.314991
     60          1           0        4.541252    2.524766   -0.926188
     61          1           0        6.894159    1.888091   -0.751406
     62          1           0        8.583563    0.443108   -0.247632
     63          1           0       10.209140   -3.196646    1.089759
     64          1           0        5.739114   -1.975266    0.757291
     65          1           0        3.417278   -1.343373    0.594055
 ---------------------------------------------------------------------

 SCF Done:  E(RBHandHLYP) =  -2118.01095874     A.U. after   15 cycles

 Excitation energies and oscillator strengths:

 Excited State   1:      Singlet-A      2.8938 eV  428.45 nm  f=1.5120  <S**2>=0.000
     144 ->146         0.24222
     145 ->146         0.63065
     145 ->147         0.17255
 This state for optimization and/or second-order correction.
 Total Energy, E(TD-HF/TD-KS) =  -2117.90461454
 Copying the excited state density for this state as the 1-particle RhoCI density.

 Excited State   2:      Singlet-A      3.8578 eV  321.38 nm  f=0.2303  <S**2>=0.000
     140 ->146         0.12149
     142 ->146         0.10783
     143 ->146        -0.10887
     144 ->146         0.61157
     145 ->146        -0.21020
     145 ->147        -0.14314

 Excited State   3:      Singlet-A      4.0780 eV  304.03 nm  f=0.2441  <S**2>=0.000
     144 ->147         0.12303
     145 ->146        -0.20960
     145 ->147         0.62040
     145 ->151         0.13259

 Excited State   4:      Singlet-A      4.2848 eV  289.36 nm  f=0.0506  <S**2>=0.000
     143 ->146         0.64473
     143 ->147         0.16902

 Excited State   5:      Singlet-A      4.3769 eV  283.27 nm  f=0.0208  <S**2>=0.000
     144 ->148        -0.18146
     145 ->148         0.62606
     145 ->152         0.12426

 Excited State   6:      Singlet-A      4.5398 eV  273.10 nm  f=0.0236  <S**2>=0.000
     137 ->146         0.58181
     143 ->146         0.10213
     144 ->150        -0.20570
     145 ->150        -0.24628

 Excited State   7:      Singlet-A      4.6263 eV  268.00 nm  f=0.2195  <S**2>=0.000
     144 ->149        -0.27328
     145 ->149         0.62966

 Excited State   8:      Singlet-A      4.7403 eV  261.56 nm  f=0.1010  <S**2>=0.000
     136 ->146        -0.19520
     137 ->146         0.14859
     140 ->146         0.40158
     142 ->146         0.30902
     144 ->147        -0.32413
     145 ->151         0.19230

 Excited State   9:      Singlet-A      4.8977 eV  253.15 nm  f=0.0248  <S**2>=0.000
     138 ->146        -0.12223
     138 ->147        -0.11069
     139 ->146         0.11056
     139 ->147         0.10945
     140 ->146        -0.10687
     141 ->146         0.18100
     141 ->147         0.11531
     142 ->146        -0.11031
     144 ->147        -0.10147
     144 ->148         0.19903
     145 ->148        -0.11160
     145 ->151         0.19652
     145 ->152         0.44183

 Excited State  10:      Singlet-A      4.9558 eV  250.18 nm  f=0.0303  <S**2>=0.000
     140 ->146         0.26470
     142 ->146         0.20738
     144 ->146        -0.16203
     144 ->147         0.39271
     145 ->150        -0.14162
     145 ->151        -0.21814
     145 ->152         0.19829

 The electronic state is 1-A.
 Alpha  occ. eigenvalues --  -90.08096 -19.73605 -19.73002 -19.72301 -19.66024
 Alpha  occ. eigenvalues --  -14.83271 -14.81764 -10.73638 -10.67630 -10.67282
 Alpha  occ. eigenvalues --  -10.67114 -10.66751 -10.64607 -10.64353 -10.64207
 Alpha  occ. eigenvalues --  -10.64153 -10.64017 -10.63733 -10.63713 -10.63598
 Alpha  occ. eigenvalues --  -10.63494 -10.61974 -10.61341 -10.61170 -10.61162
 Alpha  occ. eigenvalues --  -10.60639 -10.60154 -10.59956 -10.59561 -10.59451
 Alpha  occ. eigenvalues --  -10.59439 -10.59433 -10.59409 -10.59252 -10.59151
 Alpha  occ. eigenvalues --  -10.59144 -10.59127 -10.59115 -10.59107 -10.58971
 Alpha  occ. eigenvalues --  -10.58947  -8.36850  -6.22636  -6.22375  -6.22029
 Alpha  occ. eigenvalues --   -1.25267  -1.25018  -1.21535  -1.16313  -1.10238
 Alpha  occ. eigenvalues --   -1.05728  -1.02830  -1.00673  -0.98798  -0.98537
 Alpha  occ. eigenvalues --   -0.96654  -0.95730  -0.91286  -0.91052  -0.88556
 Alpha  occ. eigenvalues --   -0.88132  -0.87768  -0.86580  -0.86525  -0.86292
 Alpha  occ. eigenvalues --   -0.84873  -0.83100  -0.81854  -0.79481  -0.76356
 Alpha  occ. eigenvalues --   -0.73929  -0.73010  -0.72669  -0.71571  -0.71053
 Alpha  occ. eigenvalues --   -0.70725  -0.70196  -0.69915  -0.68117  -0.66802
 Alpha  occ. eigenvalues --   -0.66614  -0.64919  -0.64062  -0.62227  -0.62153
 Alpha  occ. eigenvalues --   -0.61401  -0.60569  -0.59836  -0.58020  -0.56777
 Alpha  occ. eigenvalues --   -0.56553  -0.55618  -0.54856  -0.54426  -0.54083
 Alpha  occ. eigenvalues --   -0.53882  -0.53578  -0.53348  -0.53345  -0.52789
 Alpha  occ. eigenvalues --   -0.52341  -0.52035  -0.51818  -0.51069  -0.50887
 Alpha  occ. eigenvalues --   -0.50515  -0.50146  -0.49995  -0.49870  -0.49356
 Alpha  occ. eigenvalues --   -0.47924  -0.47509  -0.46724  -0.46549  -0.45543
 Alpha  occ. eigenvalues --   -0.45387  -0.44755  -0.44685  -0.44338  -0.44120
 Alpha  occ. eigenvalues --   -0.43811  -0.43703  -0.43115  -0.42759  -0.42288
 Alpha  occ. eigenvalues --   -0.41962  -0.41562  -0.41347  -0.41245  -0.40708
 Alpha  occ. eigenvalues --   -0.39556  -0.39142  -0.37945  -0.36640  -0.35593
 Alpha  occ. eigenvalues --   -0.33013  -0.31821  -0.31149  -0.31095  -0.30333
 Alpha  occ. eigenvalues --   -0.29936  -0.29702  -0.28409  -0.25605  -0.22268
 Alpha virt. eigenvalues --   -0.07110  -0.01802   0.01107   0.01782   0.01948
 Alpha virt. eigenvalues --    0.02834   0.03669   0.03798   0.05402   0.05865
 Alpha virt. eigenvalues --    0.05958   0.06112   0.07252   0.07280   0.07949

 Mulliken charges:
               1
     1  C   -0.002631
     2  C   -0.034614
     3  C   -0.107873
     4  C   -0.105414
     5  C   -0.108171
     6  C    0.176723
     7  N   -0.566791
     8  C    0.116791
     9  C   -0.092335
    10  C   -0.091273
    11  C   -0.104354
    12  C   -0.090363
    13  C   -0.091918
    14  C    0.114568
    15  C   -0.091360
    16  C   -0.090871
    17  C   -0.103928
    18  C   -0.090031
    19  C   -0.092345
    20  C   -0.289995
    21  C    0.251480
    22  O   -0.423550
    23  C   -0.018687
    24  C   -0.014854
    25  O   -0.426229
    26  C    0.271091
    27  C   -0.314990
    28  S    0.343820
    29  C    0.031165
    30  C   -0.043820
    31  C   -0.058573
    32  C   -0.102355
    33  C    0.077525
    34  C   -0.223886
    35  C    0.022438
    36  N   -0.277334
    37  C    0.544088
    38  O   -0.343371
    39  O   -0.368453
    40  C   -0.048716
    41  C   -0.118600
    42  H    0.119229
    43  H    0.122163
    44  H    0.108955
    45  H    0.123624
    46  H    0.117487
    47  H    0.104699
    48  H    0.102199
    49  H    0.105105
    50  H    0.118469
    51  H    0.117592
    52  H    0.105170
    53  H    0.102619
    54  H    0.105149
    55  H    0.117746
    56  H    0.128655
    57  H    0.133360
    58  H    0.135434
    59  H    0.128891
    60  H    0.127158
    61  H    0.106285
    62  H    0.145053
    63  H    0.266062
    64  H    0.135058
    65  H    0.111835
 Sum of Mulliken charges =   0.00000

 Dipole moment (field-independent basis, Debye):
    X=             -8.8358    Y=              5.2897    Z=             -1.5910  Tot=             10.4204
 Quadrupole moment (field-independent basis, Debye-Ang):
   XX=           -321.7226   YY=           -217.4857   ZZ=           -238.2314
   XY=             21.4039   XZ=             -6.5088   YZ=             -0.6923

 Normal termination of Gaussian 09 at Wed Jul 14 19:34:10 2021.
