 Gaussian 16, Revision B.01,
 Gaussian 16:  ES64L-G16RevB.01 20-Dec-2017

 ---------------------------------------
 #N TD(NStates=10) CAM-B3lYP/aug-cc-pVDZ
 ---------------------------------------

 ----
 Name
 ----
 Symbolic Z-matrix:
 Charge =  0 Multiplicity = 1

                         Standard orientation:
 ---------------------------------------------------------------------
 Center     Atomic      Atomic             Coordinates (Angstroms)
 Number     Number       Type             X           Y           Z
 ---------------------------------------------------------------------
      1          6           0       -0.937367   -3.073447    0.186672
      2          6           0       -2.122867   -2.115248    0.081661
      3          6           0       -1.679316   -0.804099   -0.068452
      4          6           0       -0.249325   -0.787165   -0.077728
      5         16           0        1.036410    0.361025   -0.215518
      6          6           0        2.238860   -0.926149   -0.055578
      7          6           0        3.663445   -0.618716   -0.088081
      8          6           0        4.167072    0.639785    0.284618
      9          6           0        5.523215    0.918205    0.260048
     10          6           0        6.453643   -0.056471   -0.145370
     11          7           0        7.828021    0.221147   -0.178165
     12          6           0        8.300703    1.552970   -0.385806
     13          6           0        9.254197    2.109715    0.465769
     14          1           0        9.625209    1.528423    1.301420
     15          6           0        9.745666    3.397532    0.252908
     16          6           0        9.267005    4.157431   -0.817016
     17          6           0        8.304305    3.605310   -1.672687
     18          6           0        7.836741    2.318757   -1.466163
     19          1           0        7.103023    1.897060   -2.142771
     20          1           0        7.950783    4.202556   -2.504337
     21          8           0        9.668305    5.425275   -1.114274
     22          6           0       10.642233    6.039950   -0.282435
     23          1           0       10.285306    6.139026    0.748855
     24          1           0       11.585682    5.482513   -0.288556
     25          1           0       10.808033    7.030888   -0.701547
     26          1           0       10.488787    3.794368    0.931210
     27          6           0        8.790537   -0.816003    0.014590
     28          6           0        8.706892   -1.681719    1.105345
     29          6           0        9.647255   -2.694117    1.294967
     30          6           0       10.707870   -2.836370    0.396541
     31          6           0       10.805065   -1.960304   -0.692355
     32          6           0        9.855745   -0.970857   -0.884487
     33          1           0        9.935782   -0.303465   -1.734163
     34          1           0       11.631034   -2.085101   -1.381938
     35          8           0       11.686719   -3.780380    0.489179
     36          6           0       11.645727   -4.694126    1.575939
     37          1           0       11.722954   -4.177359    2.539191
     38          1           0       10.731032   -5.297522    1.559834
     39          1           0       12.508032   -5.346312    1.448547
     40          1           0        9.548391   -3.348753    2.150306
     41          1           0        7.894861   -1.569078    1.813892
     42          6           0        5.957184   -1.318867   -0.523743
     43          6           0        4.600126   -1.587169   -0.494737
     44          1           0        4.253834   -2.557328   -0.831925
     45          1           0        6.645870   -2.082701   -0.860973
     46          1           0        5.873589    1.893646    0.571326
     47          1           0        3.486389    1.408137    0.634689
     48          6           0        1.625489   -2.161053    0.078410
     49          6           0        0.219718   -2.083396    0.064821
     50          1           0        2.191968   -3.072577    0.214700
     51         16           0       -2.977646    0.322058   -0.184968
     52          6           0       -4.162184   -0.988087   -0.012416
     53          6           0       -3.516210   -2.217730    0.113955
     54          1           0       -4.064580   -3.142153    0.244654
     55          6           0       -5.567054   -0.737299   -0.045138
     56         16           0       -6.680862   -2.036515   -0.376555
     57          6           0       -8.117241   -1.007346   -0.249715
     58          6           0       -7.699721    0.298072    0.013178
     59          6           0       -6.283611    0.455188    0.144695
     60          6           0       -5.918293    1.776862    0.543528
     61          6           0       -7.002029    2.580666    0.716207
     62         16           0       -8.542754    1.781825    0.380001
     63          6           0       -6.929485    3.995445    1.127359
     64          8           0       -5.900200    4.586493    1.352715
     65          8           0       -8.156994    4.542399    1.221469
     66          6           0       -8.202058    5.929065    1.604344
     67          1           0       -7.756993    6.064628    2.591080
     68          1           0       -7.661788    6.539691    0.879736
     69          1           0       -9.257040    6.190991    1.617581
     70          1           0       -4.914608    2.135918    0.716605
     71          6           0       -9.376140   -1.653440   -0.354095
     72          6           0      -10.622163   -1.158916   -0.653764
     73          6           0      -10.831709    0.144243   -1.177590
     74          7           0      -10.995247    1.193976   -1.635252
     75          6           0      -11.834467   -2.036742   -0.645164
     76          8           0      -11.763023   -3.147544    0.146859
     77          1           0      -11.061204   -3.044195    0.799445
     78          8           0      -12.816952   -1.818928   -1.296115
     79          1           0       -9.331350   -2.730405   -0.206037
     80          6           0       -0.917271   -3.800420    1.548251
     81          1           0       -0.924169   -3.086302    2.374015
     82          1           0       -1.789433   -4.452223    1.648799
     83          1           0       -0.021019   -4.420217    1.637464
     84          6           0       -0.930182   -4.093261   -0.972236
     85          1           0       -0.947217   -3.587426   -1.939546
     86          1           0       -0.033600   -4.717316   -0.926403
     87          1           0       -1.802170   -4.750158   -0.911574
 ---------------------------------------------------------------------

 SCF Done:  E(RCAM-B3LYP) =  -3810.56577754     A.U. after   31 cycles

 Excitation energies and oscillator strengths:

 Excited State   1:      Singlet-A      2.2622 eV  548.06 nm  f=1.8242  <S**2>=0.000
     207 -> 209        0.34773
     208 -> 209        0.58545
 This state for optimization and/or second-order correction.
 Total Energy, E(TD-HF/TD-DFT) =  -3810.48264160
 Copying the excited state density for this state as the 1-particle RhoCI density.

 Excited State   2:      Singlet-A      3.1489 eV  393.74 nm  f=0.0440  <S**2>=0.000
     206 -> 209        0.32516
     207 -> 209        0.48873
     208 -> 209       -0.24753
     208 -> 210        0.19009
     208 -> 211       -0.18677

 Excited State   3:      Singlet-A      3.4215 eV  362.36 nm  f=0.0647  <S**2>=0.000
     206 -> 210        0.15600
     206 -> 211        0.10470
     207 -> 209       -0.15862
     207 -> 210        0.41105
     208 -> 209        0.17678
     208 -> 210        0.46501

 Excited State   4:      Singlet-A      3.6633 eV  338.45 nm  f=0.4293  <S**2>=0.000
     206 -> 209        0.11672
     206 -> 210        0.13428
     207 -> 210        0.16582
     207 -> 211        0.13154
     207 -> 217       -0.10046
     208 -> 209       -0.14904
     208 -> 211        0.57570
     208 -> 217        0.10783

 Excited State   5:      Singlet-A      3.7517 eV  330.48 nm  f=0.0105  <S**2>=0.000
     203 -> 209        0.12068
     204 -> 209       -0.27371
     206 -> 209        0.49551
     207 -> 209       -0.26364
     207 -> 211       -0.15414
     208 -> 209        0.13910

 Excited State   6:      Singlet-A      3.8760 eV  319.88 nm  f=0.0235  <S**2>=0.000
     207 -> 212        0.13592
     207 -> 213       -0.21307
     207 -> 214       -0.14265
     207 -> 215        0.12520
     208 -> 212       -0.23994
     208 -> 213        0.39945
     208 -> 214        0.27004
     208 -> 215       -0.22826

 Excited State   7:      Singlet-A      4.1011 eV  302.32 nm  f=0.1444  <S**2>=0.000
     202 -> 209       -0.29916
     203 -> 209        0.58341
     206 -> 209       -0.11130
     208 -> 210        0.10947

 Excited State   8:      Singlet-A      4.2300 eV  293.11 nm  f=0.0897  <S**2>=0.000
     206 -> 209        0.10282
     207 -> 210       -0.17772
     207 -> 211        0.42077
     208 -> 209        0.10568
     208 -> 214        0.14041
     208 -> 217       -0.35832

 Excited State   9:      Singlet-A      4.4198 eV  280.52 nm  f=0.0701  <S**2>=0.000
     198 -> 209        0.11725
     207 -> 218       -0.11204
     207 -> 222       -0.15422
     207 -> 225        0.10048
     208 -> 212       -0.17490
     208 -> 214       -0.17294
     208 -> 218        0.20116
     208 -> 221       -0.12606
     208 -> 222        0.18761
     208 -> 225       -0.18238
     208 -> 227       -0.11947
     208 -> 228        0.14378
     208 -> 229        0.11630
     208 -> 230       -0.12087

 Excited State  10:      Singlet-A      4.4352 eV  279.55 nm  f=0.0432  <S**2>=0.000
     198 -> 209        0.28374
     200 -> 209        0.10734
     204 -> 209       -0.12839
     206 -> 209       -0.10110
     206 -> 210        0.16521
     207 -> 210        0.12514
     207 -> 214       -0.14750
     207 -> 222        0.15547
     208 -> 210       -0.15745
     208 -> 218       -0.16409
     208 -> 220       -0.10048
     208 -> 222       -0.20082
     208 -> 225        0.12968

 The electronic state is 1-A.
 Alpha  occ. eigenvalues --  -89.01807 -89.01484 -89.00413 -89.00265 -19.27979
 Alpha  occ. eigenvalues --  -19.27640 -19.26204 -19.26059 -19.22197 -19.21499
 Alpha  occ. eigenvalues --  -14.44031 -14.40920 -10.41019 -10.40873 -10.34714
 Alpha  occ. eigenvalues --  -10.33299 -10.33175 -10.33158 -10.33071 -10.32734
 Alpha  occ. eigenvalues --  -10.32579 -10.32298 -10.32264 -10.32187 -10.32125
 Alpha  occ. eigenvalues --  -10.32027 -10.31742 -10.31717 -10.31499 -10.30794
 Alpha  occ. eigenvalues --  -10.30746 -10.30618 -10.30526 -10.30429 -10.30281
 Alpha  occ. eigenvalues --  -10.29817 -10.29727 -10.28608 -10.28397 -10.28383
 Alpha  occ. eigenvalues --  -10.27932 -10.27684 -10.27629 -10.27570 -10.27443
 Alpha  occ. eigenvalues --  -10.27440 -10.27421 -10.27393 -10.27280 -10.27060
 Alpha  occ. eigenvalues --  -10.27032 -10.27020 -10.26932 -10.26911 -10.26846
 Alpha  occ. eigenvalues --   -8.07855  -8.07458  -8.06372  -8.06257  -6.04308
 Alpha  occ. eigenvalues --   -6.03909  -6.03907  -6.03539  -6.03529  -6.03145
 Alpha  occ. eigenvalues --   -6.02854  -6.02705  -6.02448  -6.02327  -6.01999
 Alpha  occ. eigenvalues --   -6.01945  -1.20638  -1.19700  -1.16305  -1.16165
 Alpha  occ. eigenvalues --   -1.11702  -1.11584  -1.06080  -1.02876  -1.01917
 Alpha  occ. eigenvalues --   -0.99469  -0.98433  -0.96335  -0.95755  -0.95507
 Alpha  occ. eigenvalues --   -0.94124  -0.93274  -0.92245  -0.88744  -0.87365
 Alpha  occ. eigenvalues --   -0.85970  -0.85954  -0.85437  -0.84734  -0.84641
 Alpha  occ. eigenvalues --   -0.84329  -0.83933  -0.83026  -0.82746  -0.82127
 Alpha  occ. eigenvalues --   -0.81095  -0.79282  -0.79236  -0.78952  -0.77451
 Alpha  occ. eigenvalues --   -0.75001  -0.72942  -0.71761  -0.71615  -0.70978
 Alpha  occ. eigenvalues --   -0.70910  -0.70303  -0.69993  -0.68674  -0.68208
 Alpha  occ. eigenvalues --   -0.66534  -0.65820  -0.64667  -0.64520  -0.63677
 Alpha  occ. eigenvalues --   -0.63397  -0.62790  -0.62616  -0.62409  -0.61396
 Alpha  occ. eigenvalues --   -0.60667  -0.59647  -0.58942  -0.57718  -0.57530
 Alpha  occ. eigenvalues --   -0.57056  -0.56919  -0.56390  -0.56062  -0.55324
 Alpha  occ. eigenvalues --   -0.55169  -0.55154  -0.54736  -0.54222  -0.53805
 Alpha  occ. eigenvalues --   -0.53213  -0.53015  -0.52972  -0.52790  -0.52421
 Alpha  occ. eigenvalues --   -0.51970  -0.51759  -0.51509  -0.50817  -0.50692
 Alpha  occ. eigenvalues --   -0.50533  -0.50332  -0.50183  -0.49956  -0.49424
 Alpha  occ. eigenvalues --   -0.49372  -0.48789  -0.48672  -0.48223  -0.48051
 Alpha  occ. eigenvalues --   -0.47851  -0.47612  -0.47258  -0.46745  -0.46491
 Alpha  occ. eigenvalues --   -0.46335  -0.46233  -0.46050  -0.45636  -0.45313
 Alpha  occ. eigenvalues --   -0.44986  -0.44540  -0.44269  -0.44032  -0.43853
 Alpha  occ. eigenvalues --   -0.43607  -0.43398  -0.43145  -0.42921  -0.42369
 Alpha  occ. eigenvalues --   -0.41916  -0.41551  -0.41227  -0.41021  -0.40569
 Alpha  occ. eigenvalues --   -0.40428  -0.40308  -0.40231  -0.40070  -0.39639
 Alpha  occ. eigenvalues --   -0.39468  -0.38437  -0.37737  -0.36203  -0.35649
 Alpha  occ. eigenvalues --   -0.35004  -0.33843  -0.33432  -0.33132  -0.32452
 Alpha  occ. eigenvalues --   -0.32401  -0.32135  -0.32048  -0.31182  -0.29641
 Alpha  occ. eigenvalues --   -0.28356  -0.25040  -0.22789
 Alpha virt. eigenvalues --   -0.08523  -0.04248  -0.02448  -0.00185  -0.00043
 Alpha virt. eigenvalues --    0.00210   0.00489   0.00695   0.00996   0.01352
 Alpha virt. eigenvalues --    0.01440   0.01677   0.01831   0.01959   0.02197

 Mulliken charges:
               1
     1  C   -0.817778
     2  C   -0.339691
     3  C   -0.314856
     4  C   -0.315466
     5  S   -0.246380
     6  C   -0.371906
     7  C    1.656171
     8  C    0.580035
     9  C    0.346223
    10  C    0.988606
    11  N    0.238923
    12  C    0.498531
    13  C    1.412948
    14  H   -1.270478
    15  C    1.000771
    16  C    0.673406
    17  C    0.296326
    18  C    1.524267
    19  H   -1.293558
    20  H   -0.977468
    21  O   -0.634396
    22  C    1.366713
    23  H   -0.223398
    24  H   -0.222926
    25  H   -0.580155
    26  H   -1.232209
    27  C    0.323886
    28  C    2.032035
    29  C    1.352674
    30  C    0.411697
    31  C    0.313336
    32  C    0.568001
    33  H   -1.205204
    34  H   -0.963036
    35  O   -0.640844
    36  C    1.361630
    37  H   -0.224825
    38  H   -0.225015
    39  H   -0.577068
    40  H   -1.235905
    41  H   -1.334106
    42  C    0.310654
    43  C    0.554996
    44  H   -1.034858
    45  H   -1.256096
    46  H   -1.263720
    47  H   -1.080003
    48  C    1.491872
    49  C   -0.299443
    50  H   -1.158465
    51  S   -0.005861
    52  C   -0.526155
    53  C    1.676906
    54  H   -1.154157
    55  C    0.242702
    56  S    0.050738
    57  C   -0.346709
    58  C    0.112051
    59  C    0.319468
    60  C    1.769317
    61  C   -0.141631
    62  S   -0.066495
    63  C    0.050050
    64  O   -0.582217
    65  O   -0.545200
    66  C    1.325455
    67  H   -0.231787
    68  H   -0.226739
    69  H   -0.481898
    70  H   -1.101293
    71  C    0.839957
    72  C    1.454719
    73  C   -0.738448
    74  N   -0.142611
    75  C    0.418725
    76  O   -0.445723
    77  H    0.146823
    78  O   -0.484762
    79  H   -1.010674
    80  C    2.145079
    81  H   -0.296083
    82  H   -0.372145
    83  H   -0.371964
    84  C    1.750898
    85  H   -0.276385
    86  H   -0.364041
    87  H   -0.354360
 Sum of Mulliken charges =  -0.00000

 Dipole moment (field-independent basis, Debye):
    X=             15.2646    Y=             -3.3555    Z=              5.7755  Tot=             16.6620
 Quadrupole moment (field-independent basis, Debye-Ang):
   XX=           -457.5401   YY=           -308.3183   ZZ=           -351.2736
   XY=             -0.3938   XZ=            -26.9775   YZ=             -2.5545

 Normal termination of Gaussian 16 at Fri Jun 18 05:05:11 2021.
