 Gaussian 09, Revision D.01,
 Gaussian 09:  ES64L-G09RevD.01 24-Apr-2013

 -----------------------------------
 #N TD(NStates=10) B3lYP/6-311G(d,p)
 -----------------------------------

 ----
 Name
 ----
 Symbolic Z-matrix:
 Charge =  0 Multiplicity = 1

                         Standard orientation:
 ---------------------------------------------------------------------
 Center     Atomic      Atomic             Coordinates (Angstroms)
 Number     Number       Type             X           Y           Z
 ---------------------------------------------------------------------
      1          6           0       -0.012345   -2.980026   -0.407714
      2          6           0        1.181844   -2.045438   -0.222401
      3          6           0        0.752200   -0.744172    0.018210
      4          6           0       -0.678945   -0.712420    0.018957
      5         16           0       -1.952649    0.436098    0.234611
      6          6           0       -3.166989   -0.822632   -0.024199
      7          6           0       -4.590214   -0.504269    0.023730
      8          6           0       -5.077595    0.785619   -0.249982
      9          6           0       -6.432593    1.072378   -0.214590
     10          6           0       -7.369931    0.075781    0.102040
     11          7           0       -8.750787    0.360996    0.139017
     12          6           0       -9.214154    1.625471    0.604336
     13          6           0      -10.211451    2.315082   -0.096618
     14          1           0      -10.621524    1.883625   -1.001624
     15          6           0      -10.673568    3.542360    0.368124
     16          6           0      -10.140206    4.107439    1.525024
     17          6           0       -9.143025    3.426075    2.220855
     18          6           0       -8.687099    2.190479    1.772925
     19          1           0       -7.922238    1.658029    2.325222
     20          1           0       -8.725837    3.850586    3.127182
     21          1           0      -10.497770    5.066545    1.880804
     22          1           0      -11.446160    4.064263   -0.185371
     23          6           0       -9.697475   -0.610328   -0.296792
     24          6           0       -9.491944   -1.320371   -1.486903
     25          6           0      -10.419217   -2.268662   -1.906510
     26          6           0      -11.570826   -2.511165   -1.159718
     27          6           0      -11.782979   -1.798229    0.018937
     28          6           0      -10.852595   -0.860168    0.454890
     29          1           0      -11.016238   -0.314505    1.376158
     30          1           0      -12.672641   -1.980152    0.611433
     31          1           0      -12.294962   -3.245179   -1.493156
     32          1           0      -10.246749   -2.809387   -2.830429
     33          1           0       -8.605701   -1.124463   -2.078241
     34          6           0       -6.892132   -1.215381    0.383799
     35          6           0       -5.536667   -1.494682    0.344250
     36          1           0       -5.201094   -2.491617    0.604837
     37          1           0       -7.593124   -1.996191    0.650665
     38          1           0       -6.774959    2.072453   -0.448304
     39          1           0       -4.386677    1.572727   -0.531103
     40          6           0       -2.566632   -2.050285   -0.246603
     41          6           0       -1.159785   -1.989277   -0.220778
     42          1           0       -3.141310   -2.943633   -0.451656
     43         16           0        2.061887    0.356529    0.220661
     44          6           0        3.231933   -0.951498   -0.037351
     45          6           0        2.575347   -2.161542   -0.253040
     46          1           0        3.115099   -3.079791   -0.447226
     47          6           0        4.640379   -0.717411    0.023240
     48         16           0        5.733327   -2.034076    0.349049
     49          6           0        7.181931   -1.019341    0.262279
     50          6           0        6.783600    0.295128    0.016413
     51          6           0        5.371044    0.469850   -0.133365
     52          6           0        5.025084    1.801268   -0.517720
     53          6           0        6.119705    2.595367   -0.662240
     54         16           0        7.647231    1.775514   -0.315112
     55          6           0        6.069008    4.017068   -1.053967
     56          8           0        5.049654    4.622320   -1.285892
     57          8           0        7.303607    4.551046   -1.121623
     58          6           0        7.370376    5.942741   -1.483219
     59          1           0        6.944427    6.097414   -2.475575
     60          1           0        6.823812    6.548393   -0.759226
     61          1           0        8.428176    6.193112   -1.474066
     62          1           0        4.027359    2.172062   -0.700610
     63          6           0        8.432625   -1.681481    0.378047
     64          6           0        9.676085   -1.205887    0.713146
     65          6           0        9.888149    0.086727    1.261912
     66          7           0       10.053217    1.127542    1.738771
     67          6           0       10.879484   -2.097164    0.718285
     68          8           0       11.846749   -1.900768    1.397866
     69          8           0       10.816483   -3.192706   -0.094466
     70          1           0       10.132726   -3.071141   -0.762969
     71          1           0        8.379649   -2.754691    0.207370
     72          6           0       -0.027915   -3.601173   -1.821045
     73          1           0       -0.007959   -2.826361   -2.589895
     74          1           0        0.839207   -4.251575   -1.964513
     75          1           0       -0.928742   -4.203986   -1.963969
     76          6           0       -0.040437   -4.085156    0.669821
     77          1           0       -0.025893   -3.655350    1.673304
     78          1           0       -0.943515   -4.693214    0.569463
     79          1           0        0.824494   -4.745968    0.565774
 ---------------------------------------------------------------------

 SCF Done:  E(RB3LYP) =  -3582.92583623     A.U. after   17 cycles

 Excitation energies and oscillator strengths:

 Excited State   1:      Singlet-A      1.9126 eV  648.23 nm  f=1.2876  <S**2>=0.000
     192 -> 193        0.70293
 This state for optimization and/or second-order correction.
 Total Energy, E(TD-HF/TD-KS) =  -3582.85554765
 Copying the excited state density for this state as the 1-particle RhoCI density.

 Excited State   2:      Singlet-A      2.4174 eV  512.87 nm  f=0.4737  <S**2>=0.000
     191 -> 193        0.68009
     192 -> 194        0.15603

 Excited State   3:      Singlet-A      2.7623 eV  448.84 nm  f=0.0134  <S**2>=0.000
     190 -> 193        0.22157
     191 -> 193       -0.15511
     192 -> 194        0.63938

 Excited State   4:      Singlet-A      3.0040 eV  412.74 nm  f=0.0389  <S**2>=0.000
     190 -> 193        0.56483
     191 -> 195        0.10436
     192 -> 194       -0.19279
     192 -> 195       -0.33200

 Excited State   5:      Singlet-A      3.1090 eV  398.79 nm  f=0.3564  <S**2>=0.000
     190 -> 193        0.25428
     191 -> 194       -0.19609
     192 -> 194       -0.13455
     192 -> 195        0.59030

 Excited State   6:      Singlet-A      3.2874 eV  377.15 nm  f=0.0248  <S**2>=0.000
     187 -> 193       -0.13854
     190 -> 193        0.18395
     191 -> 194        0.63196
     192 -> 195        0.14098

 Excited State   7:      Singlet-A      3.5842 eV  345.92 nm  f=0.0222  <S**2>=0.000
     187 -> 193       -0.28670
     191 -> 195        0.60088

 Excited State   8:      Singlet-A      3.6054 eV  343.89 nm  f=0.0092  <S**2>=0.000
     188 -> 193       -0.12299
     191 -> 196        0.20186
     192 -> 196        0.64561

 Excited State   9:      Singlet-A      3.6646 eV  338.33 nm  f=0.0620  <S**2>=0.000
     187 -> 193        0.54975
     188 -> 193       -0.11697
     190 -> 194       -0.18111
     191 -> 194        0.15364
     191 -> 195        0.30676

 Excited State  10:      Singlet-A      3.7594 eV  329.79 nm  f=0.0174  <S**2>=0.000
     182 -> 193        0.21643
     185 -> 193        0.37291
     186 -> 193        0.24589
     188 -> 193       -0.12922
     189 -> 193        0.44334
     190 -> 193       -0.10573

 The electronic state is 1-A.
 Alpha  occ. eigenvalues --  -88.90685 -88.90558 -88.89679 -88.89397 -19.17625
 Alpha  occ. eigenvalues --  -19.16694 -19.11497 -19.10446 -14.35889 -14.30610
 Alpha  occ. eigenvalues --  -10.31451 -10.30940 -10.25543 -10.24113 -10.24027
 Alpha  occ. eigenvalues --  -10.24016 -10.23696 -10.23558 -10.23370 -10.23198
 Alpha  occ. eigenvalues --  -10.23061 -10.22898 -10.22872 -10.22843 -10.22821
 Alpha  occ. eigenvalues --  -10.22651 -10.22624 -10.21694 -10.20961 -10.20708
 Alpha  occ. eigenvalues --  -10.20489 -10.20425 -10.20271 -10.20058 -10.19624
 Alpha  occ. eigenvalues --  -10.19326 -10.19284 -10.18809 -10.18774 -10.18710
 Alpha  occ. eigenvalues --  -10.18679 -10.18621 -10.18609 -10.18568 -10.18546
 Alpha  occ. eigenvalues --  -10.18534 -10.18480 -10.18462 -10.18423 -10.18278
 Alpha  occ. eigenvalues --  -10.18196  -7.99315  -7.99148  -7.98277  -7.97944
 Alpha  occ. eigenvalues --   -5.95634  -5.95459  -5.95242  -5.95091  -5.94868
 Alpha  occ. eigenvalues --   -5.94703  -5.94586  -5.94280  -5.94217  -5.93887
 Alpha  occ. eigenvalues --   -5.93838  -5.93459  -1.11916  -1.10643  -1.03155
 Alpha  occ. eigenvalues --   -1.02730  -0.98373  -0.94325  -0.93505  -0.90827
 Alpha  occ. eigenvalues --   -0.90248  -0.88016  -0.87532  -0.87231  -0.85860
 Alpha  occ. eigenvalues --   -0.84992  -0.83973  -0.80609  -0.79309  -0.77804
 Alpha  occ. eigenvalues --   -0.77605  -0.77338  -0.76577  -0.76193  -0.76046
 Alpha  occ. eigenvalues --   -0.76022  -0.75131  -0.74617  -0.73422  -0.72938
 Alpha  occ. eigenvalues --   -0.71191  -0.70960  -0.67772  -0.65490  -0.64714
 Alpha  occ. eigenvalues --   -0.64484  -0.63747  -0.63095  -0.62476  -0.62338
 Alpha  occ. eigenvalues --   -0.61722  -0.61293  -0.59323  -0.58612  -0.57359
 Alpha  occ. eigenvalues --   -0.57257  -0.56555  -0.56422  -0.55691  -0.55247
 Alpha  occ. eigenvalues --   -0.55067  -0.54231  -0.52280  -0.51334  -0.50672
 Alpha  occ. eigenvalues --   -0.49983  -0.49783  -0.49597  -0.49397  -0.48609
 Alpha  occ. eigenvalues --   -0.48427  -0.47567  -0.47208  -0.46791  -0.46560
 Alpha  occ. eigenvalues --   -0.46375  -0.45994  -0.45680  -0.45653  -0.45035
 Alpha  occ. eigenvalues --   -0.44828  -0.44543  -0.44429  -0.44188  -0.44045
 Alpha  occ. eigenvalues --   -0.43771  -0.43625  -0.43577  -0.43062  -0.42215
 Alpha  occ. eigenvalues --   -0.41886  -0.41733  -0.41442  -0.41023  -0.40635
 Alpha  occ. eigenvalues --   -0.40180  -0.39989  -0.39416  -0.39295  -0.38802
 Alpha  occ. eigenvalues --   -0.38715  -0.38503  -0.38225  -0.38109  -0.37876
 Alpha  occ. eigenvalues --   -0.37790  -0.37270  -0.37205  -0.36884  -0.36661
 Alpha  occ. eigenvalues --   -0.36254  -0.36027  -0.35906  -0.35818  -0.35485
 Alpha  occ. eigenvalues --   -0.35308  -0.34803  -0.33800  -0.33121  -0.32632
 Alpha  occ. eigenvalues --   -0.32524  -0.31839  -0.30191  -0.29391  -0.28611
 Alpha  occ. eigenvalues --   -0.28265  -0.28006  -0.27916  -0.27712  -0.27407
 Alpha  occ. eigenvalues --   -0.27311  -0.26762  -0.26721  -0.26519  -0.23925
 Alpha  occ. eigenvalues --   -0.21185  -0.19264
 Alpha virt. eigenvalues --   -0.11647  -0.08056  -0.06671  -0.03916  -0.03611
 Alpha virt. eigenvalues --   -0.03205  -0.02560  -0.01953  -0.01617  -0.01458
 Alpha virt. eigenvalues --   -0.01121  -0.00118   0.00515   0.01091   0.01774

 Mulliken charges:
               1
     1  C   -0.283397
     2  C    0.029300
     3  C   -0.182044
     4  C   -0.187209
     5  S    0.305705
     6  C   -0.273499
     7  C    0.007460
     8  C   -0.089144
     9  C   -0.097397
    10  C    0.155782
    11  N   -0.496468
    12  C    0.091328
    13  C   -0.076750
    14  H    0.109777
    15  C   -0.090799
    16  C   -0.091049
    17  C   -0.090081
    18  C   -0.076194
    19  H    0.110123
    20  H    0.099020
    21  H    0.096506
    22  H    0.098500
    23  C    0.090601
    24  C   -0.076478
    25  C   -0.090460
    26  C   -0.091491
    27  C   -0.090686
    28  C   -0.075824
    29  H    0.110042
    30  H    0.098592
    31  H    0.096103
    32  H    0.097947
    33  H    0.109483
    34  C   -0.096369
    35  C   -0.049577
    36  H    0.093101
    37  H    0.115880
    38  H    0.117299
    39  H    0.105921
    40  C    0.009823
    41  C    0.034074
    42  H    0.094202
    43  S    0.342905
    44  C   -0.233685
    45  C   -0.008942
    46  H    0.104523
    47  C   -0.187093
    48  S    0.334516
    49  C   -0.324194
    50  C   -0.072468
    51  C    0.016056
    52  C    0.047830
    53  C   -0.367086
    54  S    0.385397
    55  C    0.453821
    56  O   -0.343099
    57  O   -0.332437
    58  C   -0.111088
    59  H    0.124587
    60  H    0.126839
    61  H    0.130066
    62  H    0.131151
    63  C    0.010488
    64  C   -0.176520
    65  C    0.054760
    66  N   -0.219094
    67  C    0.424234
    68  O   -0.290457
    69  O   -0.303582
    70  H    0.242093
    71  H    0.103589
    72  C   -0.211514
    73  H    0.123010
    74  H    0.109562
    75  H    0.110962
    76  C   -0.210361
    77  H    0.123705
    78  H    0.110114
    79  H    0.109763
 Sum of Mulliken charges =   0.00000

 Dipole moment (field-independent basis, Debye):
    X=            -13.8642    Y=             -2.6738    Z=             -4.2854  Tot=             14.7557
 Quadrupole moment (field-independent basis, Debye-Ang):
   XX=           -420.5541   YY=           -292.7507   ZZ=           -326.5403
   XY=              8.0171   XZ=            -45.3420   YZ=              5.0791

 Normal termination of Gaussian 09 at Mon May 17 15:49:24 2021.
