 Gaussian 16, Revision C.01,
 Gaussian 16:  ES64L-G16RevC.01  3-Jul-2019

 ---------------------------------------
 #N TD(NStates=10) BHandHLYP/6-311G(d,p)
 ---------------------------------------

 ----
 Name
 ----
 Symbolic Z-matrix:
 Charge =  0 Multiplicity = 1

                         Standard orientation:
 ---------------------------------------------------------------------
 Center     Atomic      Atomic             Coordinates (Angstroms)
 Number     Number       Type             X           Y           Z
 ---------------------------------------------------------------------
      1          6           0       -8.182487    7.128568   -1.105953
      2          8           0       -7.424227    6.343120   -0.197444
      3          6           0       -7.594299    4.990534   -0.210206
      4          6           0       -8.469618    4.302920   -1.054202
      5          6           0       -8.556066    2.912758   -0.982790
      6          6           0       -7.794556    2.189376   -0.065242
      7          7           0       -7.914267    0.769334    0.020459
      8          6           0       -6.774216   -0.050771    0.005910
      9          6           0       -6.768593   -1.297194    0.659475
     10          6           0       -5.644102   -2.104499    0.641031
     11          6           0       -4.467692   -1.716233   -0.024144
     12          6           0       -4.478614   -0.467096   -0.667243
     13          6           0       -5.599876    0.346473   -0.658344
     14          1           0       -5.576908    1.293575   -1.181667
     15          1           0       -3.602711   -0.138034   -1.215670
     16          6           0       -3.298009   -2.590422   -0.040351
     17         16           0       -1.679247   -1.948306   -0.237981
     18          6           0       -0.956467   -3.542922   -0.138653
     19          6           0       -1.937570   -4.494386    0.044753
     20          6           0       -3.244337   -3.961437    0.093471
     21          1           0       -4.130751   -4.571350    0.204916
     22          1           0       -1.716499   -5.548000    0.153267
     23          6           0        0.466090   -3.755461   -0.253515
     24         16           0        1.625967   -2.489340    0.090960
     25          6           0        2.982405   -3.542881   -0.263590
     26          6           0        2.526680   -4.802500   -0.602800
     27          6           0        1.123658   -4.920823   -0.599690
     28          1           0        0.598595   -5.824193   -0.878894
     29          1           0        3.192024   -5.607489   -0.884805
     30          6           0        4.348203   -3.095277   -0.180959
     31          6           0        5.489847   -3.875750   -0.107659
     32          6           0        6.681322   -3.134897   -0.049206
     33          6           0        6.495056   -1.761727   -0.065502
     34         16           0        4.773393   -1.400692   -0.180140
     35          6           0        7.470840   -0.700054   -0.004172
     36          6           0        7.110588    0.645469    0.018098
     37          6           0        8.027128    1.709041    0.075048
     38          6           0        9.404895    1.522915    0.116380
     39          6           0        9.839338    0.149149    0.096587
     40          6           0        8.893835   -0.951326    0.037490
     41          7           0        9.486622   -2.145534    0.026726
     42         16           0       11.103043   -1.887273    0.087207
     43          7           0       11.109838   -0.250030    0.128721
     44          6           0       10.416144    2.547404    0.177016
     45          6           0       10.318038    3.907627    0.206239
     46          6           0        9.086736    4.624554    0.179205
     47          7           0        8.074009    5.181561    0.156275
     48          6           0       11.527344    4.770239    0.270304
     49          8           0       12.682594    4.060852    0.295141
     50          1           0       13.395218    4.714294    0.336154
     51          8           0       11.502773    5.975544    0.297992
     52          1           0       11.429221    2.163911    0.203953
     53          1           0        7.621846    2.710797    0.088106
     54          1           0        6.059098    0.905844   -0.006957
     55          1           0        7.664200   -3.574760    0.016447
     56          1           0        5.457693   -4.956156   -0.073146
     57          1           0       -5.665615   -3.041239    1.185874
     58          1           0       -7.649607   -1.620623    1.198724
     59          6           0       -9.220243    0.201134    0.115168
     60          6           0      -10.139608    0.682707    1.047013
     61          6           0      -11.428031    0.154911    1.127792
     62          6           0      -11.808286   -0.887709    0.279495
     63          6           0      -10.887142   -1.380914   -0.653708
     64          6           0       -9.616649   -0.837159   -0.741459
     65          1           0       -8.917672   -1.217857   -1.476612
     66          1           0      -11.199291   -2.182431   -1.312207
     67          8           0      -13.035193   -1.482953    0.276218
     68          6           0      -14.013089   -1.020418    1.196578
     69          1           0      -13.687246   -1.158105    2.233800
     70          1           0      -14.254822    0.035405    1.029631
     71          1           0      -14.900545   -1.624742    1.016261
     72          1           0      -12.114575    0.557814    1.860159
     73          1           0       -9.849997    1.486332    1.713561
     74          6           0       -6.927688    2.890499    0.786592
     75          6           0       -6.820574    4.268759    0.708116
     76          1           0       -6.152769    4.816060    1.362263
     77          1           0       -6.334436    2.344841    1.510642
     78          1           0       -9.232054    2.385586   -1.645441
     79          1           0       -9.078993    4.830121   -1.775834
     80          1           0       -7.894368    8.161501   -0.918177
     81          1           0       -7.953658    6.873436   -2.146840
     82          1           0       -9.258874    7.016340   -0.932988
 ---------------------------------------------------------------------

 SCF Done:  E(RBHandHLYP) =  -3729.15578569     A.U. after   16 cycles

 Excitation energies and oscillator strengths:

 Excited State   1:      Singlet-A      2.2080 eV  561.53 nm  f=1.2675  <S**2>=0.000
     200 -> 203       -0.13353
     201 -> 203       -0.39261
     202 -> 203        0.54325
     202 -> 204        0.12596
 This state for optimization and/or second-order correction.
 Total Energy, E(TD-HF/TD-DFT) =  -3729.07464388
 Copying the excited state density for this state as the 1-particle RhoCI density.

 Excited State   2:      Singlet-A      2.8200 eV  439.66 nm  f=0.1941  <S**2>=0.000
     200 -> 203        0.24527
     201 -> 203        0.49189
     202 -> 203        0.42943

 Excited State   3:      Singlet-A      3.2165 eV  385.47 nm  f=0.9191  <S**2>=0.000
     200 -> 203        0.13178
     201 -> 204       -0.26542
     202 -> 203       -0.12183
     202 -> 204        0.57124
     202 -> 205       -0.12190
     202 -> 206       -0.15205

 Excited State   4:      Singlet-A      3.4886 eV  355.39 nm  f=0.0416  <S**2>=0.000
     198 -> 203        0.27483
     200 -> 203        0.54087
     201 -> 203       -0.29373
     202 -> 204       -0.10965

 Excited State   5:      Singlet-A      3.8227 eV  324.34 nm  f=0.3791  <S**2>=0.000
     200 -> 204        0.17941
     200 -> 205        0.14796
     201 -> 204        0.41073
     201 -> 205        0.22427
     202 -> 205       -0.36813
     202 -> 206       -0.23050

 Excited State   6:      Singlet-A      3.9747 eV  311.94 nm  f=0.0179  <S**2>=0.000
     191 -> 203       -0.10013
     200 -> 205        0.15982
     201 -> 204       -0.34362
     201 -> 205        0.37128
     202 -> 204       -0.16809
     202 -> 205       -0.27657
     202 -> 206        0.18145

 Excited State   7:      Singlet-A      4.1862 eV  296.18 nm  f=0.0630  <S**2>=0.000
     192 -> 203        0.23061
     193 -> 203        0.13078
     196 -> 203       -0.18099
     198 -> 203        0.39487
     200 -> 203       -0.24587
     202 -> 206       -0.18576
     202 -> 207       -0.26491

 Excited State   8:      Singlet-A      4.1988 eV  295.28 nm  f=0.0206  <S**2>=0.000
     192 -> 203        0.10609
     193 -> 203        0.11315
     198 -> 203        0.19880
     200 -> 203       -0.12962
     201 -> 204        0.12387
     201 -> 207        0.20644
     202 -> 207        0.52112

 Excited State   9:      Singlet-A      4.2521 eV  291.58 nm  f=0.0146  <S**2>=0.000
     190 -> 203        0.15698
     191 -> 203       -0.25912
     192 -> 203       -0.13652
     193 -> 203        0.33726
     198 -> 203       -0.10877
     201 -> 204        0.19627
     201 -> 206       -0.14744
     202 -> 204        0.17555
     202 -> 206        0.26640
     202 -> 207       -0.16747

 Excited State  10:      Singlet-A      4.2985 eV  288.44 nm  f=0.0496  <S**2>=0.000
     191 -> 203        0.26637
     192 -> 203        0.14386
     193 -> 203       -0.28661
     198 -> 203        0.14322
     201 -> 204        0.15146
     201 -> 206       -0.13563
     202 -> 204        0.17408
     202 -> 206        0.37513
     202 -> 207       -0.11715
     202 -> 209       -0.10122

 The electronic state is 1-A.
 Alpha  occ. eigenvalues --  -90.15226 -90.08577 -90.08378 -90.07444 -19.73084
 Alpha  occ. eigenvalues --  -19.70705 -19.70578 -19.67114 -14.85743 -14.85392
 Alpha  occ. eigenvalues --  -14.82654 -14.80025 -10.74044 -10.66719 -10.66552
 Alpha  occ. eigenvalues --  -10.65378 -10.65280 -10.65270 -10.65114 -10.64491
 Alpha  occ. eigenvalues --  -10.64480 -10.64370 -10.64231 -10.64216 -10.64156
 Alpha  occ. eigenvalues --  -10.64091 -10.63802 -10.63402 -10.63142 -10.63103
 Alpha  occ. eigenvalues --  -10.62808 -10.62764 -10.62686 -10.62678 -10.61957
 Alpha  occ. eigenvalues --  -10.60861 -10.60800 -10.60510 -10.60277 -10.60270
 Alpha  occ. eigenvalues --  -10.59927 -10.59443 -10.59410 -10.59406 -10.59369
 Alpha  occ. eigenvalues --  -10.59337 -10.59297 -10.59276 -10.59211 -10.59119
 Alpha  occ. eigenvalues --  -10.58843 -10.58727 -10.58662 -10.58623  -8.43574
 Alpha  occ. eigenvalues --   -8.37349  -8.37137  -8.36210  -6.29397  -6.28980
 Alpha  occ. eigenvalues --   -6.28785  -6.23123  -6.22910  -6.22853  -6.22641
 Alpha  occ. eigenvalues --   -6.22557  -6.22347  -6.21980  -6.21713  -6.21426
 Alpha  occ. eigenvalues --   -1.26121  -1.20836  -1.20721  -1.17247  -1.16563
 Alpha  occ. eigenvalues --   -1.09629  -1.04229  -1.04014  -1.03421  -1.02253
 Alpha  occ. eigenvalues --   -1.00941  -0.99893  -0.98289  -0.98214  -0.96223
 Alpha  occ. eigenvalues --   -0.95870  -0.91807  -0.90101  -0.89326  -0.88233
 Alpha  occ. eigenvalues --   -0.87804  -0.87024  -0.86915  -0.86655  -0.86238
 Alpha  occ. eigenvalues --   -0.85308  -0.85095  -0.84091  -0.83553  -0.81229
 Alpha  occ. eigenvalues --   -0.80629  -0.79220  -0.78032  -0.75578  -0.74342
 Alpha  occ. eigenvalues --   -0.73219  -0.72629  -0.72369  -0.71564  -0.71096
 Alpha  occ. eigenvalues --   -0.70760  -0.69280  -0.68861  -0.68319  -0.66762
 Alpha  occ. eigenvalues --   -0.65451  -0.64122  -0.62841  -0.62639  -0.62462
 Alpha  occ. eigenvalues --   -0.62338  -0.61539  -0.61399  -0.60959  -0.60441
 Alpha  occ. eigenvalues --   -0.59538  -0.59144  -0.58222  -0.57654  -0.57446
 Alpha  occ. eigenvalues --   -0.57270  -0.56314  -0.55309  -0.55217  -0.55090
 Alpha  occ. eigenvalues --   -0.54466  -0.53913  -0.53765  -0.53511  -0.52954
 Alpha  occ. eigenvalues --   -0.52690  -0.52446  -0.51338  -0.50727  -0.50565
 Alpha  occ. eigenvalues --   -0.50159  -0.50054  -0.50008  -0.49710  -0.49434
 Alpha  occ. eigenvalues --   -0.49148  -0.49029  -0.48965  -0.48581  -0.48082
 Alpha  occ. eigenvalues --   -0.47354  -0.47190  -0.46675  -0.46458  -0.46129
 Alpha  occ. eigenvalues --   -0.45663  -0.45508  -0.45210  -0.45129  -0.45033
 Alpha  occ. eigenvalues --   -0.44551  -0.44508  -0.44244  -0.43791  -0.43419
 Alpha  occ. eigenvalues --   -0.43222  -0.42833  -0.42622  -0.41824  -0.41343
 Alpha  occ. eigenvalues --   -0.41153  -0.40545  -0.40313  -0.40103  -0.39813
 Alpha  occ. eigenvalues --   -0.39810  -0.39531  -0.39482  -0.39221  -0.38766
 Alpha  occ. eigenvalues --   -0.36739  -0.36491  -0.35778  -0.34219  -0.32675
 Alpha  occ. eigenvalues --   -0.31846  -0.31558  -0.31204  -0.30982  -0.30464
 Alpha  occ. eigenvalues --   -0.30299  -0.29924  -0.28862  -0.27983  -0.26320
 Alpha  occ. eigenvalues --   -0.23375  -0.21197
 Alpha virt. eigenvalues --   -0.09691  -0.04387  -0.03659  -0.00624   0.01197
 Alpha virt. eigenvalues --    0.02215   0.02787   0.03254   0.03444   0.03530
 Alpha virt. eigenvalues --    0.03921   0.04127   0.04987   0.06438   0.06487

 Mulliken charges:
               1
     1  C   -0.110938
     2  O   -0.400318
     3  C    0.199182
     4  C   -0.135127
     5  C   -0.075191
     6  C    0.079453
     7  N   -0.565866
     8  C    0.211332
     9  C   -0.119761
    10  C   -0.056383
    11  C    0.001425
    12  C   -0.108909
    13  C   -0.120307
    14  H    0.125444
    15  H    0.109533
    16  C   -0.264281
    17  S    0.316746
    18  C   -0.249340
    19  C   -0.018009
    20  C   -0.058765
    21  H    0.105868
    22  H    0.105339
    23  C   -0.231427
    24  S    0.331070
    25  C   -0.255362
    26  C   -0.017674
    27  C   -0.033122
    28  H    0.108868
    29  H    0.109570
    30  C   -0.227115
    31  C   -0.028267
    32  C   -0.007521
    33  C   -0.299236
    34  S    0.340122
    35  C    0.130678
    36  C   -0.132218
    37  C   -0.031718
    38  C   -0.093215
    39  C    0.159464
    40  C    0.163650
    41  N   -0.549609
    42  S    0.591312
    43  N   -0.524409
    44  C    0.115711
    45  C   -0.205332
    46  C    0.094611
    47  N   -0.274393
    48  C    0.514923
    49  O   -0.380912
    50  H    0.273658
    51  O   -0.363044
    52  H    0.162507
    53  H    0.146550
    54  H    0.117084
    55  H    0.142848
    56  H    0.108691
    57  H    0.099552
    58  H    0.124297
    59  C    0.080453
    60  C   -0.074928
    61  C   -0.135155
    62  C    0.198855
    63  C   -0.091719
    64  C   -0.070201
    65  H    0.115668
    66  H    0.114406
    67  O   -0.401148
    68  C   -0.110851
    69  H    0.109371
    70  H    0.108845
    71  H    0.130582
    72  H    0.114112
    73  H    0.113162
    74  C   -0.069655
    75  C   -0.090971
    76  H    0.115765
    77  H    0.116100
    78  H    0.112390
    79  H    0.113990
    80  H    0.131246
    81  H    0.109753
    82  H    0.108211
 Sum of Mulliken charges =  -0.00000

 Dipole moment (field-independent basis, Debye):
    X=             -5.9283    Y=             -6.0043    Z=             -0.2311  Tot=              8.4410
 Quadrupole moment (field-independent basis, Debye-Ang):
   XX=           -245.8484   YY=           -339.0504   ZZ=           -339.9427
   XY=            -70.2100   XZ=             -7.4084   YZ=             -7.4854

 Normal termination of Gaussian 16 at Tue Jul 27 16:47:44 2021.
