 Gaussian 16, Revision C.01,
 Gaussian 16:  ES64L-G16RevC.01  3-Jul-2019

 ---------------------------------------
 #N TD(NStates=10) BHandhlyp/6-311G(d,p)
 ---------------------------------------

 ---------
 C25H20ON4
 ---------
 Symbolic Z-matrix:
 Charge =  0 Multiplicity = 1

                         Standard orientation:
 ---------------------------------------------------------------------
 Center     Atomic      Atomic             Coordinates (Angstroms)
 Number     Number       Type             X           Y           Z
 ---------------------------------------------------------------------
      1          7           0       -7.909998    1.253969    0.142774
      2          6           0       -6.574396    1.683095    0.071958
      3          6           0       -6.224716    3.020085    0.336904
      4          6           0       -4.905762    3.432674    0.271831
      5          6           0       -3.864764    2.547807   -0.070616
      6          6           0       -4.223248    1.209454   -0.333163
      7          6           0       -5.539841    0.789367   -0.261587
      8          6           0       -8.380227    0.190077   -0.684328
      9          6           0       -8.139772    0.186767   -2.058668
     10          6           0       -8.603813   -0.849372   -2.868563
     11          6           0       -9.342969   -1.893833   -2.307784
     12          6           0       -9.597928   -1.889730   -0.930465
     13          6           0       -9.116110   -0.867613   -0.130167
     14          6           0       -8.839962    1.896087    1.014106
     15          6           0       -8.530097    2.104237    2.367058
     16          6           0       -9.438078    2.716094    3.214291
     17          6           0      -10.693327    3.119209    2.739834
     18          6           0      -11.016552    2.904664    1.398167
     19          6           0      -10.088232    2.306347    0.546330
     20          1           0       -6.995209    3.733982    0.597669
     21          1           0       -4.680164    4.468964    0.498303
     22          6           0       -2.484840    2.999872   -0.162535
     23          1           0       -3.447475    0.499094   -0.580148
     24          1           0       -5.776883   -0.247270   -0.464487
     25          1           0       -7.577801    0.999546   -2.503043
     26          1           0       -8.394282   -0.819678   -3.929304
     27          8           0       -9.854190   -2.949249   -3.004504
     28          1           0      -10.167946   -2.708999   -0.509386
     29          1           0       -9.311809   -0.878149    0.935373
     30          1           0       -7.568412    1.783124    2.749042
     31          1           0       -9.205337    2.879494    4.259556
     32          8           0      -11.517579    3.699883    3.657963
     33          1           0      -11.976525    3.204572    0.999999
     34          1           0      -10.343805    2.149938   -0.494819
     35          6           0       -1.282906    2.275618   -0.145620
     36          6           0       -0.106285    3.094768   -0.254457
     37          6           0       -0.377809    4.465497   -0.378134
     38         16           0       -2.112078    4.686524   -0.348304
     39          6           0        0.510252    5.603729   -0.504058
     40          6           0        0.009050    6.901710   -0.752363
     41          6           0        0.855298    7.984156   -0.867519
     42          6           0        2.256297    7.847595   -0.747145
     43          6           0        2.757878    6.550732   -0.496866
     44          6           0        1.913568    5.464646   -0.378821
     45          6           0        3.049220    9.041705   -0.889289
     46          6           0        4.395302    9.263865   -0.849832
     47          6           0        4.853720   10.666798   -1.041589
     48          8           0        4.127155   11.615023   -1.227708
     49          8           0        6.198576   10.777918   -0.985469
     50          7           0       -1.180821    0.924115   -0.077108
     51          7           0        1.127368    2.531332   -0.177907
     52          1           0       -1.057401    7.059955   -0.863452
     53          1           0        0.437961    8.966785   -1.060452
     54          1           0        3.821422    6.390273   -0.388936
     55          1           0        2.321048    4.484156   -0.181458
     56          1           0        2.480519    9.951504   -1.063693
     57          6           0        5.380494    8.258469   -0.643924
     58          1           0        6.401526   11.715065   -1.118375
     59          7           0        6.178366    7.437573   -0.477745
     60          6           0        0.017807    0.382125   -0.067225
     61          6           0        1.218367    1.224560   -0.043972
     62          6           0        0.056625   -1.099400   -0.126094
     63          6           0        0.956540   -1.795424   -0.945936
     64          6           0        2.863736   -0.298821    1.121652
     65          6           0        2.584582    0.693890    0.170991
     66          6           0        3.670141    1.260211   -0.515054
     67          6           0        4.970473    0.843827   -0.283801
     68          6           0        5.246095   -0.152584    0.671381
     69          6           0        4.162712   -0.711566    1.373495
     70          6           0        0.919234   -3.177455   -1.048123
     71          6           0       -0.022731   -3.928770   -0.323172
     72          6           0       -0.932293   -3.234188    0.494408
     73          6           0       -0.893412   -1.851338    0.580366
     74          1           0        3.481502    2.047183   -1.234934
     75          1           0        5.785583    1.299183   -0.831124
     76          1           0        4.345649   -1.475231    2.118017
     77          1           0        1.626466   -3.684753   -1.691361
     78          1           0       -1.675201   -3.785834    1.056155
     79          1           0       -1.616368   -1.332629    1.198018
     80          6           0      -12.804301    4.127650    3.235893
     81          6           0       -9.635946   -3.002584   -4.406606
     82          1           0      -13.281069    4.551523    4.118122
     83          1           0      -12.737793    4.895873    2.457164
     84          1           0      -13.406274    3.289106    2.867632
     85          1           0      -10.080230   -2.140066   -4.916237
     86          1           0       -8.567796   -3.054710   -4.646325
     87          1           0      -10.125273   -3.912775   -4.749452
     88          7           0        6.563324   -0.570972    0.920009
     89          6           0        7.321587   -1.100438   -1.356308
     90          6           0        7.553652   -0.523181   -0.107812
     91          6           0        8.792325    0.090731    0.127426
     92          6           0        9.765096    0.120671   -0.857495
     93          6           0        9.521054   -0.447919   -2.114088
     94          6           0        8.288091   -1.056718   -2.360896
     95          1           0        8.070818   -1.509849   -3.318708
     96          1           0        8.986667    0.543822    1.092135
     97          1           0        6.371857   -1.584646   -1.550533
     98          8           0       10.539567   -0.355970   -3.016430
     99          1           0       10.723176    0.595135   -0.683532
    100          6           0        7.636035   -2.272704    2.322719
    101          6           0        6.944038   -1.068002    2.202916
    102          6           0        6.655859   -0.341124    3.368280
    103          6           0        7.036569   -0.818062    4.610975
    104          6           0        7.736310   -2.026623    4.724127
    105          6           0        8.041139   -2.750216    3.569198
    106          1           0        6.128406    0.602131    3.290872
    107          1           0        7.869710   -2.842158    1.431142
    108          8           0        8.073392   -2.402074    5.991536
    109          1           0        6.818245   -0.261965    5.514580
    110          6           0       10.345412   -0.901550   -4.312771
    111          1           0       11.267560   -0.707872   -4.858250
    112          1           0       10.170051   -1.982760   -4.272741
    113          1           0        9.510267   -0.417634   -4.831847
    114          7           0       -0.054765   -5.332532   -0.413582
    115          6           0        1.279144   -7.052159   -1.552673
    116          6           0        0.357301   -5.996338   -1.607602
    117          6           0       -0.154800   -5.623844   -2.850921
    118          6           0        0.249857   -6.268547   -4.019704
    119          6           0        1.164996   -7.321932   -3.952753
    120          6           0        1.670346   -7.711439   -2.705973
    121          1           0        2.381259   -8.528037   -2.670234
    122          1           0       -0.872866   -4.814547   -2.909635
    123          1           0        1.684172   -7.354748   -0.594439
    124          8           0        1.623475   -8.026860   -5.027256
    125          1           0       -0.165465   -5.948922   -4.965976
    126          6           0       -1.419636   -7.151827    0.502168
    127          6           0       -0.491734   -6.127068    0.687818
    128          6           0        0.021807   -5.915156    1.976704
    129          6           0       -0.394468   -6.695710    3.041737
    130          6           0       -1.321505   -7.727857    2.846828
    131          6           0       -1.828151   -7.956576    1.565756
    132          1           0       -2.545492   -8.744915    1.381486
    133          1           0        0.749583   -5.128930    2.137603
    134          1           0       -1.823169   -7.330594   -0.487291
    135          8           0       -1.656472   -8.444559    3.958220
    136          1           0       -0.002626   -6.536135    4.038974
    137          6           0        1.150371   -7.674134   -6.318622
    138          6           0       -2.597563   -9.499139    3.822964
    139          1           0        1.647125   -8.350299   -7.012530
    140          1           0        0.065496   -7.806402   -6.400696
    141          1           0        1.409607   -6.640270   -6.573849
    142          1           0       -2.236195  -10.276247    3.139725
    143          1           0       -3.567841   -9.130120    3.471570
    144          1           0       -2.714414   -9.923285    4.818897
    145          1           0        8.581223   -3.685783    3.622832
    146          6           0        8.785842   -3.617345    6.168906
    147          1           0        8.946590   -3.714229    7.241391
    148          1           0        8.209166   -4.477954    5.811088
    149          1           0        9.755735   -3.593587    5.659081
    150          1           0        1.697901   -1.250975   -1.517365
    151          1           0        2.056105   -0.752177    1.682584
 ---------------------------------------------------------------------

 SCF Done:  E(RBHandHLYP) =  -4259.22649489     A.U. after   16 cycles

 Excitation energies and oscillator strengths:

 Excited State   1:      Singlet-A      2.3005 eV  538.95 nm  f=0.8767  <S**2>=0.000
     316 -> 320       -0.17355
     319 -> 320        0.65787
     319 -> 321       -0.13500
 This state for optimization and/or second-order correction.
 Total Energy, E(TD-HF/TD-DFT) =  -4259.14195323
 Copying the excited state density for this state as the 1-particle RhoCI density.

 Excited State   2:      Singlet-A      2.8038 eV  442.20 nm  f=0.6165  <S**2>=0.000
     315 -> 320       -0.15001
     316 -> 320       -0.10049
     318 -> 320        0.64388
     318 -> 321       -0.13524
     319 -> 321        0.10336

 Excited State   3:      Singlet-A      3.1260 eV  396.62 nm  f=0.3020  <S**2>=0.000
     317 -> 320        0.65291
     317 -> 321       -0.16817
     319 -> 321        0.10413

 Excited State   4:      Singlet-A      3.2552 eV  380.88 nm  f=0.4297  <S**2>=0.000
     316 -> 321       -0.24495
     319 -> 320        0.15372
     319 -> 321        0.60410

 Excited State   5:      Singlet-A      3.3997 eV  364.69 nm  f=0.1497  <S**2>=0.000
     311 -> 320        0.10927
     316 -> 320        0.62214
     318 -> 320        0.15024
     319 -> 320        0.12765

 Excited State   6:      Singlet-A      3.7344 eV  332.00 nm  f=0.0575  <S**2>=0.000
     297 -> 320       -0.29343
     297 -> 321        0.20028
     299 -> 320       -0.15562
     301 -> 320        0.19791
     301 -> 321       -0.11919
     307 -> 320        0.13325
     318 -> 320        0.11997
     318 -> 321        0.37220

 Excited State   7:      Singlet-A      3.7843 eV  327.63 nm  f=0.1097  <S**2>=0.000
     297 -> 320        0.21300
     297 -> 321       -0.14453
     299 -> 320        0.10591
     301 -> 320       -0.13358
     315 -> 321       -0.11213
     316 -> 320       -0.14593
     318 -> 320        0.12230
     318 -> 321        0.49752

 Excited State   8:      Singlet-A      3.9649 eV  312.70 nm  f=0.0845  <S**2>=0.000
     315 -> 320       -0.23428
     317 -> 320        0.10485
     317 -> 321        0.37940
     317 -> 323       -0.11762
     318 -> 322        0.19329
     319 -> 322       -0.35641

 Excited State   9:      Singlet-A      4.0446 eV  306.54 nm  f=0.5351  <S**2>=0.000
     315 -> 320        0.16578
     317 -> 320        0.16400
     317 -> 321        0.33044
     318 -> 322        0.27786
     319 -> 322        0.36850
     319 -> 323        0.16189
     319 -> 325        0.12077

 Excited State  10:      Singlet-A      4.1331 eV  299.98 nm  f=0.4762  <S**2>=0.000
     298 -> 320        0.10606
     308 -> 320        0.10196
     315 -> 320        0.46526
     317 -> 321        0.12454
     318 -> 320        0.10790
     318 -> 321       -0.19666
     318 -> 322       -0.14066
     319 -> 322       -0.17694
     319 -> 323       -0.24532
     319 -> 324        0.10319

 The electronic state is 1-A.
 Alpha  occ. eigenvalues --  -90.08257 -19.72259 -19.70659 -19.70648 -19.70538
 Alpha  occ. eigenvalues --  -19.70488 -19.70207 -19.70178 -19.66228 -14.82616
 Alpha  occ. eigenvalues --  -14.82452 -14.82143 -14.81012 -14.80805 -14.78792
 Alpha  occ. eigenvalues --  -10.73282 -10.65305 -10.65298 -10.65211 -10.65144
 Alpha  occ. eigenvalues --  -10.65113 -10.64861 -10.64852 -10.64792 -10.64221
 Alpha  occ. eigenvalues --  -10.64206 -10.64068 -10.64034 -10.63770 -10.63745
 Alpha  occ. eigenvalues --  -10.63694 -10.63641 -10.63591 -10.63419 -10.63303
 Alpha  occ. eigenvalues --  -10.63275 -10.62868 -10.62803 -10.62661 -10.62657
 Alpha  occ. eigenvalues --  -10.62642 -10.62629 -10.62576 -10.62214 -10.62187
 Alpha  occ. eigenvalues --  -10.62145 -10.61605 -10.60656 -10.60248 -10.60134
 Alpha  occ. eigenvalues --  -10.59467 -10.59450 -10.59349 -10.59349 -10.59293
 Alpha  occ. eigenvalues --  -10.59260 -10.59254 -10.59228 -10.59225 -10.59202
 Alpha  occ. eigenvalues --  -10.59193 -10.59167 -10.59148 -10.59144 -10.59083
 Alpha  occ. eigenvalues --  -10.59055 -10.59040 -10.59002 -10.58952 -10.58919
 Alpha  occ. eigenvalues --  -10.58899 -10.58848 -10.58804 -10.58744 -10.58731
 Alpha  occ. eigenvalues --  -10.58721 -10.58714 -10.58707 -10.58694 -10.58672
 Alpha  occ. eigenvalues --  -10.58626 -10.58564 -10.58492 -10.58397 -10.58288
 Alpha  occ. eigenvalues --  -10.58219 -10.58198 -10.58188 -10.58146 -10.57951
 Alpha  occ. eigenvalues --  -10.57905  -8.37010  -6.22760  -6.22491  -6.22271
 Alpha  occ. eigenvalues --   -1.25350  -1.20779  -1.20776  -1.20673  -1.20614
 Alpha  occ. eigenvalues --   -1.20335  -1.20316  -1.15693  -1.11650  -1.09547
 Alpha  occ. eigenvalues --   -1.09424  -1.09116  -1.04314  -1.02861  -1.01402
 Alpha  occ. eigenvalues --   -0.99352  -0.98329  -0.98200  -0.98173  -0.97914
 Alpha  occ. eigenvalues --   -0.97786  -0.97675  -0.96150  -0.95998  -0.95588
 Alpha  occ. eigenvalues --   -0.94452  -0.90180  -0.90038  -0.87855  -0.87829
 Alpha  occ. eigenvalues --   -0.87765  -0.87664  -0.87427  -0.86841  -0.86748
 Alpha  occ. eigenvalues --   -0.86704  -0.86649  -0.86572  -0.86363  -0.86215
 Alpha  occ. eigenvalues --   -0.85920  -0.85784  -0.85550  -0.85239  -0.84733
 Alpha  occ. eigenvalues --   -0.83793  -0.82719  -0.81988  -0.80714  -0.80693
 Alpha  occ. eigenvalues --   -0.80319  -0.79116  -0.79022  -0.78784  -0.77488
 Alpha  occ. eigenvalues --   -0.75892  -0.74121  -0.73048  -0.72108  -0.72036
 Alpha  occ. eigenvalues --   -0.71970  -0.71803  -0.71606  -0.71373  -0.71006
 Alpha  occ. eigenvalues --   -0.70822  -0.70614  -0.70473  -0.70041  -0.69371
 Alpha  occ. eigenvalues --   -0.69082  -0.68961  -0.68869  -0.68510  -0.67467
 Alpha  occ. eigenvalues --   -0.66402  -0.66052  -0.65562  -0.64703  -0.63263
 Alpha  occ. eigenvalues --   -0.62636  -0.62474  -0.62320  -0.62223  -0.62163
 Alpha  occ. eigenvalues --   -0.61931  -0.61791  -0.60955  -0.60756  -0.60570
 Alpha  occ. eigenvalues --   -0.59642  -0.59483  -0.59230  -0.59040  -0.58541
 Alpha  occ. eigenvalues --   -0.58022  -0.57445  -0.57390  -0.57053  -0.56566
 Alpha  occ. eigenvalues --   -0.56426  -0.56133  -0.55746  -0.55609  -0.55192
 Alpha  occ. eigenvalues --   -0.55179  -0.55056  -0.55014  -0.54741  -0.54734
 Alpha  occ. eigenvalues --   -0.54713  -0.54312  -0.53636  -0.53354  -0.53180
 Alpha  occ. eigenvalues --   -0.52945  -0.52863  -0.52841  -0.52679  -0.52456
 Alpha  occ. eigenvalues --   -0.52438  -0.52067  -0.51855  -0.51398  -0.51366
 Alpha  occ. eigenvalues --   -0.51054  -0.50748  -0.50477  -0.50402  -0.50235
 Alpha  occ. eigenvalues --   -0.50196  -0.50109  -0.50033  -0.49893  -0.49833
 Alpha  occ. eigenvalues --   -0.49819  -0.49496  -0.49460  -0.49222  -0.49172
 Alpha  occ. eigenvalues --   -0.49138  -0.49062  -0.49030  -0.48766  -0.48650
 Alpha  occ. eigenvalues --   -0.48291  -0.48014  -0.47671  -0.47205  -0.46081
 Alpha  occ. eigenvalues --   -0.45997  -0.45755  -0.45693  -0.45591  -0.45353
 Alpha  occ. eigenvalues --   -0.45189  -0.45014  -0.44964  -0.44939  -0.44742
 Alpha  occ. eigenvalues --   -0.44593  -0.44560  -0.44313  -0.44069  -0.43994
 Alpha  occ. eigenvalues --   -0.43841  -0.43675  -0.43542  -0.43514  -0.43312
 Alpha  occ. eigenvalues --   -0.43209  -0.43093  -0.42856  -0.42689  -0.42534
 Alpha  occ. eigenvalues --   -0.41435  -0.41274  -0.40820  -0.40659  -0.40466
 Alpha  occ. eigenvalues --   -0.40371  -0.40100  -0.40015  -0.39970  -0.39950
 Alpha  occ. eigenvalues --   -0.39753  -0.39619  -0.39592  -0.39569  -0.39411
 Alpha  occ. eigenvalues --   -0.39385  -0.39360  -0.39241  -0.39000  -0.38846
 Alpha  occ. eigenvalues --   -0.38046  -0.36636  -0.35501  -0.35216  -0.35147
 Alpha  occ. eigenvalues --   -0.34743  -0.31524  -0.31185  -0.30967  -0.30803
 Alpha  occ. eigenvalues --   -0.30704  -0.30430  -0.30371  -0.30185  -0.30077
 Alpha  occ. eigenvalues --   -0.29813  -0.29743  -0.29636  -0.29085  -0.28567
 Alpha  occ. eigenvalues --   -0.28346  -0.27795  -0.27767  -0.27402  -0.26696
 Alpha  occ. eigenvalues --   -0.23970  -0.22180  -0.21457  -0.20555
 Alpha virt. eigenvalues --   -0.07205  -0.03897  -0.00078   0.01156   0.01306
 Alpha virt. eigenvalues --    0.01550   0.01850   0.03246   0.03257   0.03292
 Alpha virt. eigenvalues --    0.03550   0.03684   0.03695   0.03747   0.03985

 Mulliken charges:
               1
     1  N   -0.564714
     2  C    0.212169
     3  C   -0.127786
     4  C   -0.106864
     5  C   -0.003203
     6  C   -0.029616
     7  C   -0.126186
     8  C    0.079865
     9  C   -0.071379
    10  C   -0.133003
    11  C    0.198959
    12  C   -0.093107
    13  C   -0.072002
    14  C    0.084370
    15  C   -0.070216
    16  C   -0.091174
    17  C    0.198916
    18  C   -0.134702
    19  C   -0.077688
    20  H    0.123441
    21  H    0.105127
    22  C   -0.299835
    23  H    0.135145
    24  H    0.123096
    25  H    0.115597
    26  H    0.114279
    27  O   -0.401429
    28  H    0.113401
    29  H    0.113417
    30  H    0.117489
    31  H    0.115186
    32  O   -0.400795
    33  H    0.113605
    34  H    0.112934
    35  C    0.230027
    36  C    0.256404
    37  C   -0.335715
    38  S    0.375212
    39  C    0.029189
    40  C   -0.117597
    41  C   -0.066623
    42  C   -0.098908
    43  C   -0.054021
    44  C   -0.045011
    45  C    0.077076
    46  C   -0.218305
    47  C    0.530806
    48  O   -0.394178
    49  O   -0.367458
    50  N   -0.392336
    51  N   -0.410207
    52  H    0.105485
    53  H    0.101665
    54  H    0.135960
    55  H    0.151772
    56  H    0.137673
    57  C    0.088376
    58  H    0.268732
    59  N   -0.278505
    60  C    0.170150
    61  C    0.193806
    62  C   -0.167056
    63  C   -0.042278
    64  C   -0.039820
    65  C   -0.169963
    66  C   -0.038069
    67  C   -0.115977
    68  C    0.214013
    69  C   -0.119898
    70  C   -0.115356
    71  C    0.207316
    72  C   -0.119331
    73  C   -0.039372
    74  H    0.108606
    75  H    0.128062
    76  H    0.123520
    77  H    0.122064
    78  H    0.124121
    79  H    0.108458
    80  C   -0.110841
    81  C   -0.110583
    82  H    0.130617
    83  H    0.109053
    84  H    0.108859
    85  H    0.108826
    86  H    0.108857
    87  H    0.129913
    88  N   -0.564495
    89  C   -0.068225
    90  C    0.073952
    91  C   -0.067240
    92  C   -0.091645
    93  C    0.199885
    94  C   -0.133066
    95  H    0.113008
    96  H    0.113855
    97  H    0.110959
    98  O   -0.400380
    99  H    0.115086
   100  C   -0.074759
   101  C    0.080375
   102  C   -0.066738
   103  C   -0.091423
   104  C    0.198991
   105  C   -0.135226
   106  H    0.118700
   107  H    0.111338
   108  O   -0.400961
   109  H    0.115376
   110  C   -0.110495
   111  H    0.130263
   112  H    0.107272
   113  H    0.109627
   114  N   -0.566568
   115  C   -0.072030
   116  C    0.079092
   117  C   -0.070940
   118  C   -0.133448
   119  C    0.198626
   120  C   -0.093624
   121  H    0.113347
   122  H    0.115105
   123  H    0.113224
   124  O   -0.401574
   125  H    0.113863
   126  C   -0.077259
   127  C    0.086595
   128  C   -0.070715
   129  C   -0.091260
   130  C    0.198509
   131  C   -0.134375
   132  H    0.113358
   133  H    0.115652
   134  H    0.112231
   135  O   -0.401221
   136  H    0.114538
   137  C   -0.110443
   138  C   -0.110808
   139  H    0.130148
   140  H    0.108375
   141  H    0.108693
   142  H    0.108452
   143  H    0.109216
   144  H    0.130222
   145  H    0.112960
   146  C   -0.110669
   147  H    0.130001
   148  H    0.108245
   149  H    0.109066
   150  H    0.115064
   151  H    0.115810
 Sum of Mulliken charges =  -0.00000

 Dipole moment (field-independent basis, Debye):
    X=             -6.8416    Y=             -9.2773    Z=             -4.0358  Tot=             12.2133
 Quadrupole moment (field-independent basis, Debye-Ang):
   XX=           -465.0571   YY=           -517.5046   ZZ=           -484.8347
   XY=            -50.6854   XZ=              7.3152   YZ=              7.9266

 Normal termination of Gaussian 16 at Thu Jul 29 06:48:20 2021.
