 Gaussian 16, Revision B.01,
 Gaussian 16:  ES64L-G16RevB.01 20-Dec-2017

 --------------------------
 #N PBE1PBE/6-311G(d,p) OPT
 --------------------------

 ------------
 C61H46O6N4S3
 ------------
 Symbolic Z-matrix:
 Charge =  0 Multiplicity = 1

 SCF Done:  E(RPBE1PBE) =  -4213.87706833     A.U. after   18 cycles
 SCF Done:  E(RPBE1PBE) =  -4213.88019234     A.U. after   12 cycles
 SCF Done:  E(RPBE1PBE) =  -4213.88052418     A.U. after   11 cycles
 SCF Done:  E(RPBE1PBE) =  -4213.88059398     A.U. after   11 cycles
 SCF Done:  E(RPBE1PBE) =  -4213.88060411     A.U. after   10 cycles
 SCF Done:  E(RPBE1PBE) =  -4213.88060425     A.U. after   10 cycles
 SCF Done:  E(RPBE1PBE) =  -4213.88061022     A.U. after    8 cycles
 SCF Done:  E(RPBE1PBE) =  -4213.88061273     A.U. after   10 cycles
 SCF Done:  E(RPBE1PBE) =  -4213.88061352     A.U. after   10 cycles
 SCF Done:  E(RPBE1PBE) =  -4213.88061398     A.U. after    8 cycles
 SCF Done:  E(RPBE1PBE) =  -4213.88061473     A.U. after   10 cycles
 SCF Done:  E(RPBE1PBE) =  -4213.88061516     A.U. after   10 cycles
 SCF Done:  E(RPBE1PBE) =  -4213.88061541     A.U. after   10 cycles
 SCF Done:  E(RPBE1PBE) =  -4213.88061565     A.U. after   10 cycles
 SCF Done:  E(RPBE1PBE) =  -4213.88061585     A.U. after   10 cycles
 SCF Done:  E(RPBE1PBE) =  -4213.88061595     A.U. after    8 cycles
 SCF Done:  E(RPBE1PBE) =  -4213.88061605     A.U. after   10 cycles
 SCF Done:  E(RPBE1PBE) =  -4213.88061613     A.U. after    8 cycles
 SCF Done:  E(RPBE1PBE) =  -4213.88061618     A.U. after    8 cycles
 SCF Done:  E(RPBE1PBE) =  -4213.88061620     A.U. after    7 cycles
 Optimization completed.
    -- Stationary point found.

                         Standard orientation:
 ---------------------------------------------------------------------
 Center     Atomic      Atomic             Coordinates (Angstroms)
 Number     Number       Type             X           Y           Z
 ---------------------------------------------------------------------
      1          6           0        7.501011   -1.420032    2.609684
      2          6           0        8.549014   -0.890573    1.647756
      3          6           0        7.952260   -0.286327    0.554131
      4          6           0        6.531662   -0.356560    0.700796
      5         16           0        5.126788    0.123537   -0.150746
      6          6           0        4.097428   -0.560078    1.099726
      7          6           0        4.855008   -1.124939    2.110509
      8          6           0        6.234456   -1.008212    1.881773
      9          1           0        4.390626   -1.594669    2.965965
     10          6           0        2.657125   -0.476419    0.970121
     11          6           0        2.041092    0.137693   -0.102802
     12          6           0        0.644044    0.228529   -0.260032
     13          6           0       -0.263073   -0.280535    0.644594
     14          6           0        0.321304   -0.930322    1.779641
     15          7           0       -0.352524   -1.481005    2.788468
     16         16           0        0.738041   -2.067593    3.831119
     17          7           0        2.108647   -1.652423    3.067305
     18          6           0        1.758948   -1.027028    1.945444
     19          6           0       -1.711788   -0.150206    0.449336
     20          6           0       -2.616122   -1.139519    0.857692
     21          6           0       -3.973516   -1.013994    0.625747
     22          6           0       -4.490428    0.112462   -0.025643
     23          6           0       -3.595569    1.110172   -0.432033
     24          6           0       -2.240680    0.977410   -0.193093
     25          1           0       -1.577435    1.779840   -0.499321
     26          1           0       -3.972645    1.995814   -0.930459
     27          7           0       -5.867020    0.239942   -0.261137
     28          6           0       -6.488704    1.507675   -0.220734
     29          6           0       -7.449244    1.857580   -1.173223
     30          6           0       -8.070705    3.094356   -1.128717
     31          6           0       -7.748456    4.033649   -0.141835
     32          6           0       -6.785193    3.671673    0.806437
     33          6           0       -6.169314    2.430860    0.777363
     34          1           0       -5.439653    2.166985    1.535233
     35          1           0       -6.536253    4.365478    1.603474
     36          6           0       -8.366366    5.374965   -0.108938
     37          6           0       -7.580835    6.508937    0.142307
     38          6           0       -8.105301    7.785994    0.160401
     39          6           0       -9.466201    7.979338   -0.082752
     40          6           0      -10.276761    6.874694   -0.326063
     41          6           0       -9.730252    5.593995   -0.338499
     42          8           0      -10.589145    4.558482   -0.605119
     43          6           0      -10.969805    3.811299    0.539327
     44          1           0      -11.494057    4.448279    1.261995
     45          1           0      -11.644815    3.029247    0.190196
     46          1           0      -10.102369    3.350498    1.024098
     47          1           0      -11.338604    6.964464   -0.516798
     48          8           0       -9.903108    9.259239   -0.062632
     49          6           0      -11.268928    9.493702   -0.318890
     50          1           0      -11.404139   10.573249   -0.265776
     51          1           0      -11.557378    9.142507   -1.316713
     52          1           0      -11.907892    9.013461    0.431886
     53          1           0       -7.479673    8.652572    0.339483
     54          1           0       -6.514997    6.376200    0.298243
     55          1           0       -8.809776    3.346987   -1.879416
     56          1           0       -7.702498    1.150534   -1.955800
     57          6           0       -6.653200   -0.904258   -0.536279
     58          6           0       -7.895266   -1.075593    0.078439
     59          6           0       -8.671080   -2.189068   -0.196479
     60          6           0       -8.234722   -3.178195   -1.084954
     61          6           0       -6.984348   -2.998516   -1.686179
     62          6           0       -6.207833   -1.879882   -1.428712
     63          1           0       -5.243522   -1.762707   -1.911290
     64          1           0       -6.608983   -3.755813   -2.367091
     65          6           0       -9.059480   -4.354751   -1.430630
     66          6           0       -9.747037   -5.115314   -0.468663
     67          6           0      -10.496481   -6.234339   -0.835944
     68          6           0      -10.574193   -6.613037   -2.175717
     69          6           0       -9.902406   -5.874369   -3.145610
     70          6           0       -9.164624   -4.770393   -2.760509
     71          1           0       -8.658562   -4.185183   -3.521579
     72          1           0       -9.980630   -6.174693   -4.183387
     73          8           0      -11.281323   -7.679368   -2.617974
     74          6           0      -11.980585   -8.455895   -1.674677
     75          1           0      -12.740954   -7.865601   -1.148735
     76          1           0      -12.472494   -9.245974   -2.240817
     77          1           0      -11.302428   -8.909940   -0.941773
     78          1           0      -11.011069   -6.807980   -0.078813
     79          8           0       -9.627676   -4.714335    0.820583
     80          6           0      -10.232861   -5.485465    1.830550
     81          1           0      -11.324116   -5.512186    1.722856
     82          1           0       -9.843694   -6.510590    1.843117
     83          1           0       -9.979976   -4.996871    2.770898
     84          1           0       -9.631157   -2.300127    0.291846
     85          1           0       -8.252415   -0.321492    0.771587
     86          1           0       -4.649431   -1.796170    0.952126
     87          1           0       -2.249938   -2.017815    1.373199
     88          1           0        0.270986    0.705804   -1.159656
     89          1           0        2.656140    0.570750   -0.885680
     90         16           0        9.096619    0.323206   -0.560258
     91          6           0       10.421299   -0.238537    0.440207
     92          6           0        9.947477   -0.862148    1.581967
     93          1           0       10.606803   -1.298539    2.322109
     94          6           0       11.795713   -0.028249    0.035535
     95          6           0       12.847781   -0.182525    0.954869
     96          6           0       14.156124    0.006130    0.567696
     97          6           0       14.491953    0.366730   -0.750255
     98          6           0       13.438348    0.528959   -1.668232
     99          6           0       12.130631    0.332767   -1.282736
    100          1           0       11.345178    0.446729   -2.022813
    101          1           0       13.641826    0.803321   -2.695862
    102          6           0       15.886978    0.542990   -1.051971
    103          6           0       16.529964    0.873642   -2.200662
    104          6           0       15.905198    1.135239   -3.444745
    105          7           0       15.488314    1.365590   -4.500657
    106          6           0       18.027736    0.970127   -2.153411
    107          8           0       18.655742    0.767702   -1.152788
    108          8           0       18.638857    1.297823   -3.298831
    109          1           0       17.998680    1.427736   -4.009693
    110          1           0       16.574408    0.386702   -0.222028
    111          1           0       14.951452   -0.115461    1.296709
    112          1           0       12.631214   -0.433063    1.986763
    113          6           0        7.590922   -2.944583    2.752436
    114          1           0        7.521029   -3.432970    1.777793
    115          1           0        8.539582   -3.231420    3.215964
    116          1           0        6.778750   -3.316637    3.383536
    117          6           0        7.602777   -0.738966    3.980158
    118          1           0        7.542223    0.347353    3.882043
    119          1           0        6.790290   -1.071961    4.632320
    120          1           0        8.551141   -0.990557    4.464333
 ---------------------------------------------------------------------

 The electronic state is 1-A.
 Alpha  occ. eigenvalues --  -89.11483 -89.06873 -89.06270 -19.24994 -19.24074
 Alpha  occ. eigenvalues --  -19.23885 -19.23747 -19.21824 -19.18591 -14.42533
 Alpha  occ. eigenvalues --  -14.42460 -14.42024 -14.39748 -10.36279 -10.29337
 Alpha  occ. eigenvalues --  -10.29055 -10.28993 -10.28856 -10.28811 -10.28285
 Alpha  occ. eigenvalues --  -10.28161 -10.28123 -10.28118 -10.28069 -10.28002
 Alpha  occ. eigenvalues --  -10.27979 -10.27871 -10.27798 -10.27670 -10.27587
 Alpha  occ. eigenvalues --  -10.27412 -10.27373 -10.26971 -10.26894 -10.26676
 Alpha  occ. eigenvalues --  -10.26637 -10.26532 -10.26204 -10.25771 -10.25513
 Alpha  occ. eigenvalues --  -10.25236 -10.25170 -10.24979 -10.24950 -10.24872
 Alpha  occ. eigenvalues --  -10.24738 -10.24437 -10.24373 -10.23935 -10.23824
 Alpha  occ. eigenvalues --  -10.23582 -10.23399 -10.23208 -10.23109 -10.22918
 Alpha  occ. eigenvalues --  -10.22873 -10.22790 -10.22784 -10.22778 -10.22778
 Alpha  occ. eigenvalues --  -10.22764 -10.22641 -10.22596 -10.22593 -10.22494
 Alpha  occ. eigenvalues --  -10.22460 -10.22450 -10.22396 -10.22396 -10.22345
 Alpha  occ. eigenvalues --  -10.22270 -10.22270 -10.21940 -10.21477  -8.09577
 Alpha  occ. eigenvalues --   -8.05274  -8.04678  -6.03352  -6.02769  -6.02577
 Alpha  occ. eigenvalues --   -5.98948  -5.98585  -5.98361  -5.98237  -5.97996
 Alpha  occ. eigenvalues --   -5.97627  -1.14475  -1.11220  -1.10942  -1.10843
 Alpha  occ. eigenvalues --   -1.08919  -1.06784  -1.05904  -1.00660  -0.96403
 Alpha  occ. eigenvalues --   -0.95855  -0.93694  -0.92987  -0.91747  -0.90630
 Alpha  occ. eigenvalues --   -0.89885  -0.89583  -0.88673  -0.87968  -0.87576
 Alpha  occ. eigenvalues --   -0.86851  -0.86288  -0.82873  -0.82099  -0.81417
 Alpha  occ. eigenvalues --   -0.80561  -0.80175  -0.79931  -0.79484  -0.78628
 Alpha  occ. eigenvalues --   -0.78339  -0.77897  -0.77549  -0.77528  -0.77301
 Alpha  occ. eigenvalues --   -0.76850  -0.76690  -0.76297  -0.75025  -0.74445
 Alpha  occ. eigenvalues --   -0.73431  -0.72575  -0.72490  -0.70996  -0.70816
 Alpha  occ. eigenvalues --   -0.69810  -0.68106  -0.66380  -0.66227  -0.65920
 Alpha  occ. eigenvalues --   -0.65307  -0.65276  -0.64702  -0.64109  -0.63891
 Alpha  occ. eigenvalues --   -0.63643  -0.62896  -0.62640  -0.61951  -0.61856
 Alpha  occ. eigenvalues --   -0.61409  -0.60470  -0.60410  -0.59546  -0.58943
 Alpha  occ. eigenvalues --   -0.57704  -0.57306  -0.57147  -0.56627  -0.56102
 Alpha  occ. eigenvalues --   -0.55783  -0.55399  -0.55238  -0.54005  -0.53476
 Alpha  occ. eigenvalues --   -0.52958  -0.52547  -0.52447  -0.51598  -0.51358
 Alpha  occ. eigenvalues --   -0.51190  -0.50597  -0.50341  -0.50076  -0.49909
 Alpha  occ. eigenvalues --   -0.49742  -0.49295  -0.49215  -0.49080  -0.48728
 Alpha  occ. eigenvalues --   -0.48445  -0.47950  -0.47819  -0.47525  -0.47410
 Alpha  occ. eigenvalues --   -0.47264  -0.47139  -0.46994  -0.46827  -0.46727
 Alpha  occ. eigenvalues --   -0.46190  -0.46047  -0.45996  -0.45607  -0.45574
 Alpha  occ. eigenvalues --   -0.45439  -0.44944  -0.44681  -0.44248  -0.43890
 Alpha  occ. eigenvalues --   -0.43713  -0.43529  -0.43444  -0.43433  -0.43252
 Alpha  occ. eigenvalues --   -0.42977  -0.42745  -0.42493  -0.42199  -0.42138
 Alpha  occ. eigenvalues --   -0.41917  -0.41746  -0.41046  -0.40907  -0.40823
 Alpha  occ. eigenvalues --   -0.40698  -0.40410  -0.40267  -0.40087  -0.39965
 Alpha  occ. eigenvalues --   -0.39821  -0.39727  -0.39375  -0.39084  -0.39047
 Alpha  occ. eigenvalues --   -0.38876  -0.38703  -0.38466  -0.38111  -0.38019
 Alpha  occ. eigenvalues --   -0.37973  -0.37824  -0.37354  -0.37309  -0.36689
 Alpha  occ. eigenvalues --   -0.36587  -0.36548  -0.36361  -0.36129  -0.35894
 Alpha  occ. eigenvalues --   -0.35716  -0.35398  -0.35232  -0.35065  -0.34852
 Alpha  occ. eigenvalues --   -0.34826  -0.34527  -0.33905  -0.33787  -0.33677
 Alpha  occ. eigenvalues --   -0.32742  -0.32212  -0.31753  -0.30880  -0.29930
 Alpha  occ. eigenvalues --   -0.29484  -0.29132  -0.28864  -0.28699  -0.28221
 Alpha  occ. eigenvalues --   -0.28043  -0.27605  -0.27560  -0.27252  -0.26603
 Alpha  occ. eigenvalues --   -0.26385  -0.26100  -0.25636  -0.24852  -0.23166
 Alpha  occ. eigenvalues --   -0.22046  -0.20649  -0.18904
 Alpha virt. eigenvalues --   -0.10891  -0.09482  -0.05812  -0.03267  -0.03015
 Alpha virt. eigenvalues --   -0.02630  -0.02012  -0.01733  -0.00496  -0.00338
 Alpha virt. eigenvalues --    0.00054   0.00215   0.00389   0.00438   0.00725

 Mulliken charges:
               1
     1  C   -0.385946
     2  C    0.041618
     3  C   -0.202944
     4  C   -0.192362
     5  S    0.344037
     6  C   -0.301258
     7  C    0.032905
     8  C    0.037425
     9  H    0.131826
    10  C    0.113153
    11  C   -0.121499
    12  C   -0.087729
    13  C    0.011599
    14  C    0.122959
    15  N   -0.515019
    16  S    0.568631
    17  N   -0.557868
    18  C    0.158081
    19  C   -0.029586
    20  C   -0.032524
    21  C   -0.118934
    22  C    0.167180
    23  C   -0.114305
    24  C   -0.074982
    25  H    0.105193
    26  H    0.131540
    27  N   -0.557628
    28  C    0.108342
    29  C   -0.088110
    30  C   -0.050044
    31  C   -0.137117
    32  C   -0.078437
    33  C   -0.088723
    34  H    0.125047
    35  H    0.106094
    36  C   -0.012304
    37  C   -0.065846
    38  C   -0.101477
    39  C    0.196217
    40  C   -0.110981
    41  C    0.105618
    42  O   -0.381790
    43  C   -0.157376
    44  H    0.110903
    45  H    0.128421
    46  H    0.135898
    47  H    0.117374
    48  O   -0.345417
    49  C   -0.183506
    50  H    0.143011
    51  H    0.130026
    52  H    0.125880
    53  H    0.111325
    54  H    0.107621
    55  H    0.118312
    56  H    0.124481
    57  C    0.093874
    58  C   -0.091387
    59  C   -0.030980
    60  C   -0.027582
    61  C   -0.074416
    62  C   -0.086629
    63  H    0.121024
    64  H    0.107867
    65  C   -0.114203
    66  C    0.203914
    67  C   -0.196822
    68  C    0.184883
    69  C   -0.103712
    70  C   -0.074174
    71  H    0.105103
    72  H    0.108868
    73  O   -0.345817
    74  C   -0.184117
    75  H    0.124901
    76  H    0.144323
    77  H    0.124898
    78  H    0.137026
    79  O   -0.357007
    80  C   -0.183987
    81  H    0.124111
    82  H    0.127251
    83  H    0.144760
    84  H    0.102726
    85  H    0.118063
    86  H    0.132265
    87  H    0.117244
    88  H    0.109225
    89  H    0.113041
    90  S    0.356323
    91  C   -0.323786
    92  C    0.021071
    93  H    0.103350
    94  C    0.037021
    95  C   -0.041290
    96  C   -0.064909
    97  C   -0.105514
    98  C   -0.043778
    99  C   -0.111296
   100  H    0.120371
   101  H    0.138035
   102  C    0.059649
   103  C   -0.231495
   104  C    0.030886
   105  N   -0.283098
   106  C    0.502179
   107  O   -0.332709
   108  O   -0.301332
   109  H    0.259778
   110  H    0.141037
   111  H    0.109466
   112  H    0.105920
   113  C   -0.241777
   114  H    0.140637
   115  H    0.125519
   116  H    0.132258
   117  C   -0.241668
   118  H    0.140510
   119  H    0.132421
   120  H    0.124683
 Sum of Mulliken charges =  -0.00000

 Dipole moment (field-independent basis, Debye):
    X=            -12.4532    Y=             -3.4711    Z=              5.9654  Tot=             14.2379
 Quadrupole moment (field-independent basis, Debye-Ang):
   XX=           -546.0015   YY=           -407.0819   ZZ=           -442.6258
   XY=             -4.1777   XZ=             24.6429   YZ=            -14.3583

 Normal termination of Gaussian 16 at Sat Jul 10 06:27:20 2021.
