 Gaussian 16, Revision B.01,
 Gaussian 16:  ES64L-G16RevB.01 20-Dec-2017

 --------------------------
 #N PBE1PBE/6-311G(d,p) OPT
 --------------------------

 ------------
 C61H46O6N4S3
 ------------
 Symbolic Z-matrix:
 Charge =  0 Multiplicity = 1

 SCF Done:  E(RPBE1PBE) =  -2624.36342554     A.U. after   19 cycles
 SCF Done:  E(RPBE1PBE) =  -2624.36523260     A.U. after   12 cycles
 SCF Done:  E(RPBE1PBE) =  -2624.36544769     A.U. after   11 cycles
 SCF Done:  E(RPBE1PBE) =  -2624.36544816     A.U. after   11 cycles
 SCF Done:  E(RPBE1PBE) =  -2624.36549410     A.U. after   10 cycles
 SCF Done:  E(RPBE1PBE) =  -2624.36550128     A.U. after   10 cycles
 SCF Done:  E(RPBE1PBE) =  -2624.36550327     A.U. after    9 cycles
 SCF Done:  E(RPBE1PBE) =  -2624.36550381     A.U. after    8 cycles
 SCF Done:  E(RPBE1PBE) =  -2624.36550397     A.U. after    8 cycles
 SCF Done:  E(RPBE1PBE) =  -2624.36550404     A.U. after    7 cycles
 Optimization completed.
    -- Stationary point found.

                         Standard orientation:
 ---------------------------------------------------------------------
 Center     Atomic      Atomic             Coordinates (Angstroms)
 Number     Number       Type             X           Y           Z
 ---------------------------------------------------------------------
      1          6           0        7.778515    5.988598    0.395812
      2          8           0        6.830818    5.434817   -0.487934
      3          6           0        6.472006    4.143149   -0.304763
      4          6           0        6.981673    3.309970    0.689457
      5          6           0        6.532776    1.997705    0.791606
      6          6           0        5.591474    1.491163   -0.097721
      7          7           0        5.163170    0.141567   -0.002382
      8          6           0        3.809142   -0.179421   -0.007481
      9          6           0        3.363932   -1.434193   -0.455830
     10          6           0        2.020292   -1.747755   -0.458764
     11          6           0        1.051330   -0.833712   -0.019428
     12          6           0        1.503323    0.417381    0.422557
     13          6           0        2.844832    0.741523    0.432570
     14          1           0        3.161156    1.711019    0.798782
     15          1           0        0.789041    1.143519    0.798807
     16          6           0       -0.356949   -1.185843   -0.024332
     17         16           0       -1.587247    0.031787   -0.040782
     18          6           0       -2.870405   -1.150432   -0.027286
     19          6           0       -2.332155   -2.423818   -0.030409
     20          6           0       -0.930339   -2.441677   -0.026892
     21          1           0       -0.345443   -3.351938    0.005742
     22          1           0       -2.953779   -3.307546   -0.020770
     23          6           0       -4.248647   -0.738934   -0.015817
     24          6           0       -4.625171    0.596837    0.054356
     25          6           0       -5.954204    1.041638    0.066595
     26          6           0       -7.037649    0.177873    0.011500
     27          6           0       -6.707333   -1.215285   -0.064007
     28          6           0       -5.339717   -1.675049   -0.077709
     29          7           0       -5.242702   -2.999987   -0.153734
     30         16           0       -6.751295   -3.590416   -0.202144
     31          7           0       -7.593537   -2.204593   -0.131423
     32          6           0       -8.430634    0.530356    0.022606
     33          6           0       -9.056575    1.735087    0.083799
     34          6           0       -8.363948    2.971092    0.192685
     35          7           0       -7.781943    3.966514    0.264223
     36          6           0      -10.547015    1.858905    0.149024
     37          8           0      -11.091996    2.816360    0.612981
     38          8           0      -11.258227    0.819808   -0.330852
     39          1           0      -10.692760    0.238441   -0.847301
     40          1           0       -9.074060   -0.347418    0.006309
     41          1           0       -6.122018    2.109465    0.127744
     42          1           0       -3.850441    1.354339    0.108586
     43          1           0        1.710331   -2.712502   -0.846124
     44          1           0        4.085363   -2.155832   -0.820680
     45          6           0        6.151804   -0.870724    0.100885
     46          6           0        7.233046   -0.893239   -0.773362
     47          6           0        8.224333   -1.862267   -0.662628
     48          6           0        8.131610   -2.841413    0.324753
     49          6           0        7.044585   -2.825529    1.203020
     50          6           0        6.074947   -1.847552    1.099443
     51          1           0        5.242139   -1.834733    1.794495
     52          1           0        6.993240   -3.586765    1.973246
     53          8           0        9.032465   -3.833275    0.515033
     54          6           0       10.143731   -3.890129   -0.349534
     55          1           0        9.836408   -4.035260   -1.392181
     56          1           0       10.758462   -2.984873   -0.276110
     57          1           0       10.731908   -4.748483   -0.027591
     58          1           0        9.054497   -1.847150   -1.357746
     59          1           0        7.305941   -0.136117   -1.546724
     60          6           0        5.096992    2.329323   -1.102741
     61          6           0        5.522458    3.639665   -1.198243
     62          1           0        5.143962    4.297206   -1.972642
     63          1           0        4.369243    1.943332   -1.808607
     64          1           0        6.927349    1.354037    1.570500
     65          1           0        7.718268    3.670524    1.396563
     66          1           0        7.918741    7.020974    0.078237
     67          1           0        7.418796    5.976483    1.431665
     68          1           0        8.738567    5.461380    0.339690
 ---------------------------------------------------------------------

 The electronic state is 1-A.
 Alpha  occ. eigenvalues --  -89.12670 -89.05945 -19.25099 -19.24464 -19.24387
 Alpha  occ. eigenvalues --  -19.18625 -14.43802 -14.43618 -14.42793 -14.38114
 Alpha  occ. eigenvalues --  -10.36138 -10.30193 -10.30075 -10.29612 -10.29556
 Alpha  occ. eigenvalues --  -10.28518 -10.28473 -10.28430 -10.28387 -10.28306
 Alpha  occ. eigenvalues --  -10.28295 -10.28179 -10.27719 -10.27255 -10.27204
 Alpha  occ. eigenvalues --  -10.26980 -10.26402 -10.26209 -10.25607 -10.24995
 Alpha  occ. eigenvalues --  -10.24334 -10.24169 -10.24126 -10.23930 -10.23929
 Alpha  occ. eigenvalues --  -10.23915 -10.23891 -10.23860 -10.23732 -10.23674
 Alpha  occ. eigenvalues --  -10.23428 -10.23396 -10.23393 -10.23321  -8.10746
 Alpha  occ. eigenvalues --   -8.04404  -6.04522  -6.03940  -6.03745  -5.98076
 Alpha  occ. eigenvalues --   -5.97706  -5.97369  -1.14384  -1.11564  -1.11493
 Alpha  occ. eigenvalues --   -1.08054  -1.05958  -1.01437  -0.94994  -0.94288
 Alpha  occ. eigenvalues --   -0.93727  -0.91613  -0.90024  -0.89940  -0.88150
 Alpha  occ. eigenvalues --   -0.86882  -0.82813  -0.81211  -0.80731  -0.80370
 Alpha  occ. eigenvalues --   -0.79183  -0.79073  -0.78655  -0.77606  -0.77112
 Alpha  occ. eigenvalues --   -0.75401  -0.73543  -0.72429  -0.70702  -0.68410
 Alpha  occ. eigenvalues --   -0.66653  -0.66326  -0.65875  -0.65161  -0.64741
 Alpha  occ. eigenvalues --   -0.64522  -0.63324  -0.62620  -0.60779  -0.60121
 Alpha  occ. eigenvalues --   -0.58888  -0.58206  -0.57342  -0.57267  -0.56116
 Alpha  occ. eigenvalues --   -0.55237  -0.54618  -0.54479  -0.53085  -0.52469
 Alpha  occ. eigenvalues --   -0.52004  -0.51075  -0.49930  -0.49846  -0.49755
 Alpha  occ. eigenvalues --   -0.49101  -0.48524  -0.47932  -0.47606  -0.47566
 Alpha  occ. eigenvalues --   -0.47457  -0.46451  -0.46259  -0.45556  -0.45238
 Alpha  occ. eigenvalues --   -0.45122  -0.44996  -0.44673  -0.44085  -0.43774
 Alpha  occ. eigenvalues --   -0.43449  -0.42850  -0.41963  -0.41771  -0.41511
 Alpha  occ. eigenvalues --   -0.41331  -0.41241  -0.40950  -0.40908  -0.40861
 Alpha  occ. eigenvalues --   -0.40290  -0.39730  -0.39369  -0.38589  -0.38521
 Alpha  occ. eigenvalues --   -0.38056  -0.37833  -0.37567  -0.36262  -0.36090
 Alpha  occ. eigenvalues --   -0.35478  -0.35397  -0.35227  -0.35153  -0.34683
 Alpha  occ. eigenvalues --   -0.33992  -0.33515  -0.33154  -0.32091  -0.29903
 Alpha  occ. eigenvalues --   -0.29816  -0.29139  -0.28779  -0.28161  -0.28037
 Alpha  occ. eigenvalues --   -0.27742  -0.26257  -0.25402  -0.23017  -0.19647
 Alpha virt. eigenvalues --   -0.12208  -0.07563  -0.05488  -0.03198  -0.01408
 Alpha virt. eigenvalues --   -0.01335  -0.01045  -0.00771  -0.00244  -0.00129
 Alpha virt. eigenvalues --    0.01698   0.02195   0.02464   0.02992   0.04224

 Mulliken charges:
               1
     1  C   -0.184042
     2  O   -0.344441
     3  C    0.181238
     4  C   -0.141572
     5  C   -0.069545
     6  C    0.045407
     7  N   -0.542989
     8  C    0.216063
     9  C   -0.128422
    10  C   -0.042091
    11  C   -0.008714
    12  C   -0.106305
    13  C   -0.129192
    14  H    0.136885
    15  H    0.115636
    16  C   -0.290627
    17  S    0.369021
    18  C   -0.312652
    19  C   -0.004773
    20  C   -0.051709
    21  H    0.110150
    22  H    0.138902
    23  C    0.133489
    24  C   -0.138130
    25  C   -0.038295
    26  C   -0.080841
    27  C    0.146200
    28  C    0.165362
    29  N   -0.542629
    30  S    0.581024
    31  N   -0.530292
    32  C    0.043639
    33  C   -0.195110
    34  C    0.105412
    35  N   -0.278364
    36  C    0.466658
    37  O   -0.303984
    38  O   -0.296901
    39  H    0.249622
    40  H    0.127557
    41  H    0.142942
    42  H    0.119043
    43  H    0.104307
    44  H    0.135751
    45  C    0.049042
    46  C   -0.070437
    47  C   -0.141782
    48  C    0.180894
    49  C   -0.095629
    50  C   -0.068482
    51  H    0.122418
    52  H    0.118638
    53  O   -0.344983
    54  C   -0.183965
    55  H    0.127734
    56  H    0.126875
    57  H    0.144816
    58  H    0.123018
    59  H    0.118685
    60  C   -0.067432
    61  C   -0.094982
    62  H    0.119452
    63  H    0.122384
    64  H    0.118042
    65  H    0.123075
    66  H    0.145238
    67  H    0.128242
    68  H    0.126453
 Sum of Mulliken charges =  -0.00000

 Dipole moment (field-independent basis, Debye):
    X=             13.6549    Y=             -5.6058    Z=             -1.5461  Tot=             14.8415
 Quadrupole moment (field-independent basis, Debye-Ang):
   XX=           -292.0975   YY=           -264.4205   ZZ=           -265.3854
   XY=             64.2539   XZ=             15.6809   YZ=              4.7617

 Normal termination of Gaussian 16 at Fri Jul  9 16:54:59 2021.
