 Gaussian 09, Revision D.01,
 Gaussian 09:  ES64L-G09RevD.01 24-Apr-2013

 -----------------------------------
 #N TD(NStates=10) B3lYP/6-311G(d,p)
 -----------------------------------

 ----
 Name
 ----
 Symbolic Z-matrix:
 Charge =  0 Multiplicity = 1

                         Standard orientation:
 ---------------------------------------------------------------------
 Center     Atomic      Atomic             Coordinates (Angstroms)
 Number     Number       Type             X           Y           Z
 ---------------------------------------------------------------------
      1          6           0        7.854865    6.024058    0.403487
      2          8           0        6.930098    5.445576   -0.507285
      3          6           0        6.551439    4.151509   -0.314600
      4          6           0        7.013084    3.328698    0.716028
      5          6           0        6.548922    2.017843    0.819648
      6          6           0        5.639310    1.501770   -0.102244
      7          7           0        5.195402    0.146676   -0.004616
      8          6           0        3.831426   -0.166409   -0.016121
      9          6           0        3.376849   -1.423317   -0.463194
     10          6           0        2.028745   -1.730473   -0.469197
     11          6           0        1.058040   -0.808007   -0.035304
     12          6           0        1.519446    0.446258    0.403126
     13          6           0        2.865936    0.763307    0.416735
     14          1           0        3.182701    1.731893    0.780526
     15          1           0        0.810972    1.178648    0.774162
     16          6           0       -0.355386   -1.156756   -0.040233
     17         16           0       -1.598290    0.071945   -0.059677
     18          6           0       -2.889919   -1.128032   -0.041858
     19          6           0       -2.339225   -2.399356   -0.041965
     20          6           0       -0.933701   -2.413395   -0.039446
     21          1           0       -0.351646   -3.324188   -0.004324
     22          1           0       -2.952581   -3.286838   -0.029235
     23          6           0       -4.274635   -0.725308   -0.027824
     24          6           0       -4.663327    0.611667    0.041976
     25          6           0       -5.998093    1.048696    0.058794
     26          6           0       -7.081872    0.178411    0.008897
     27          6           0       -6.743828   -1.219490   -0.067869
     28          6           0       -5.365060   -1.673476   -0.086099
     29          7           0       -5.257420   -3.000011   -0.162402
     30         16           0       -6.774991   -3.613123   -0.206354
     31          7           0       -7.627557   -2.214635   -0.131885
     32          6           0       -8.479634    0.528438    0.026300
     33          6           0       -9.115721    1.732156    0.098297
     34          6           0       -8.432816    2.976899    0.214181
     35          7           0       -7.859740    3.978005    0.290750
     36          6           0      -10.612934    1.843960    0.167833
     37          8           0      -11.170170    2.794364    0.639908
     38          8           0      -11.326407    0.795559   -0.320491
     39          1           0      -10.764773    0.217454   -0.849414
     40          1           0       -9.119864   -0.348824    0.005237
     41          1           0       -6.169390    2.114206    0.118876
     42          1           0       -3.896732    1.375424    0.092792
     43          1           0        1.717481   -2.694805   -0.853227
     44          1           0        4.091832   -2.151590   -0.822929
     45          6           0        6.182485   -0.880510    0.109488
     46          6           0        7.243138   -0.949132   -0.792860
     47          6           0        8.226109   -1.931155   -0.674294
     48          6           0        8.146178   -2.876241    0.351647
     49          6           0        7.080856   -2.813495    1.259788
     50          6           0        6.119176   -1.823881    1.145719
     51          1           0        5.306643   -1.776838    1.861042
     52          1           0        7.039224   -3.545811    2.056842
     53          8           0        9.042096   -3.882022    0.555863
     54          6           0       10.140418   -4.002717   -0.337475
     55          1           0        9.804647   -4.183713   -1.364656
     56          1           0       10.777211   -3.111220   -0.314833
     57          1           0       10.712574   -4.861240    0.009852
     58          1           0        9.036138   -1.951624   -1.390748
     59          1           0        7.307425   -0.223104   -1.594546
     60          6           0        5.191810    2.330782   -1.141623
     61          6           0        5.633098    3.639345   -1.240941
     62          1           0        5.292087    4.286042   -2.040189
     63          1           0        4.491923    1.941314   -1.871452
     64          1           0        6.906439    1.386992    1.624756
     65          1           0        7.721313    3.693910    1.447422
     66          1           0        8.009898    7.045443    0.060366
     67          1           0        7.455829    6.042205    1.423759
     68          1           0        8.812336    5.491153    0.396740
 ---------------------------------------------------------------------

 SCF Done:  E(RB3LYP) =  -2626.78545031     A.U. after   20 cycles

 Excitation energies and oscillator strengths:

 Excited State   1:      Singlet-A      1.6195 eV  765.58 nm  f=0.6136  <S**2>=0.000
     160 ->161         0.70707
 This state for optimization and/or second-order correction.
 Total Energy, E(TD-HF/TD-KS) =  -2626.72593537
 Copying the excited state density for this state as the 1-particle RhoCI density.

 Excited State   2:      Singlet-A      2.4063 eV  515.25 nm  f=0.3157  <S**2>=0.000
     159 ->161         0.67719
     160 ->162         0.16149

 Excited State   3:      Singlet-A      2.7062 eV  458.15 nm  f=0.3365  <S**2>=0.000
     159 ->161        -0.15940
     160 ->162         0.67636

 Excited State   4:      Singlet-A      3.0280 eV  409.47 nm  f=0.0043  <S**2>=0.000
     158 ->161         0.70454

 Excited State   5:      Singlet-A      3.1227 eV  397.04 nm  f=0.1649  <S**2>=0.000
     157 ->161         0.58118
     160 ->163         0.38135

 Excited State   6:      Singlet-A      3.2505 eV  381.44 nm  f=0.3008  <S**2>=0.000
     156 ->161        -0.11715
     157 ->161        -0.31507
     159 ->162        -0.25434
     160 ->162        -0.10726
     160 ->163         0.53674

 Excited State   7:      Singlet-A      3.3790 eV  366.92 nm  f=0.0235  <S**2>=0.000
     154 ->161         0.34417
     155 ->161         0.15283
     156 ->161         0.51720
     159 ->162        -0.27622

 Excited State   8:      Singlet-A      3.5000 eV  354.24 nm  f=0.1193  <S**2>=0.000
     156 ->161         0.27261
     157 ->161        -0.19709
     159 ->162         0.52747
     160 ->163         0.18743
     160 ->164         0.20471

 Excited State   9:      Singlet-A      3.5278 eV  351.45 nm  f=0.0267  <S**2>=0.000
     154 ->161        -0.24589
     155 ->161        -0.21481
     159 ->162        -0.19999
     160 ->164         0.55215

 Excited State  10:      Singlet-A      3.5944 eV  344.94 nm  f=0.0096  <S**2>=0.000
     153 ->161         0.17147
     154 ->161         0.35923
     155 ->161         0.27791
     156 ->161        -0.34375
     160 ->164         0.37117

 The electronic state is 1-A.
 Alpha  occ. eigenvalues --  -88.95428 -88.88710 -19.16871 -19.16227 -19.16140
 Alpha  occ. eigenvalues --  -19.10684 -14.36673 -14.36477 -14.35726 -14.31299
 Alpha  occ. eigenvalues --  -10.31234 -10.25064 -10.24919 -10.24649 -10.24577
 Alpha  occ. eigenvalues --  -10.23706 -10.23606 -10.23344 -10.23310 -10.23240
 Alpha  occ. eigenvalues --  -10.22955 -10.22906 -10.22448 -10.22182 -10.22131
 Alpha  occ. eigenvalues --  -10.21757 -10.21248 -10.20967 -10.20404 -10.19896
 Alpha  occ. eigenvalues --  -10.19189 -10.19060 -10.19017 -10.18918 -10.18887
 Alpha  occ. eigenvalues --  -10.18860 -10.18825 -10.18814 -10.18733 -10.18662
 Alpha  occ. eigenvalues --  -10.18395 -10.18352 -10.18326 -10.18316  -8.03686
 Alpha  occ. eigenvalues --   -7.97372  -6.00101  -5.99521  -5.99287  -5.93674
 Alpha  occ. eigenvalues --   -5.93302  -5.92939  -1.10947  -1.08106  -1.08022
 Alpha  occ. eigenvalues --   -1.04434  -1.02982  -0.98126  -0.92012  -0.91594
 Alpha  occ. eigenvalues --   -0.90735  -0.88743  -0.87302  -0.87268  -0.85514
 Alpha  occ. eigenvalues --   -0.84218  -0.80255  -0.78747  -0.78263  -0.77973
 Alpha  occ. eigenvalues --   -0.76928  -0.76795  -0.76406  -0.75369  -0.74841
 Alpha  occ. eigenvalues --   -0.73146  -0.71517  -0.70336  -0.68695  -0.66442
 Alpha  occ. eigenvalues --   -0.64597  -0.64345  -0.63810  -0.63146  -0.62951
 Alpha  occ. eigenvalues --   -0.62729  -0.61503  -0.60855  -0.59087  -0.58199
 Alpha  occ. eigenvalues --   -0.57027  -0.56520  -0.55670  -0.55622  -0.54457
 Alpha  occ. eigenvalues --   -0.53563  -0.52907  -0.52821  -0.51578  -0.50881
 Alpha  occ. eigenvalues --   -0.50379  -0.49559  -0.48424  -0.48330  -0.47749
 Alpha  occ. eigenvalues --   -0.47689  -0.47192  -0.46530  -0.46343  -0.46319
 Alpha  occ. eigenvalues --   -0.46072  -0.45138  -0.44776  -0.44436  -0.44165
 Alpha  occ. eigenvalues --   -0.44001  -0.43830  -0.43535  -0.42993  -0.42507
 Alpha  occ. eigenvalues --   -0.42273  -0.41342  -0.40666  -0.40520  -0.40367
 Alpha  occ. eigenvalues --   -0.40080  -0.39887  -0.39700  -0.39676  -0.39573
 Alpha  occ. eigenvalues --   -0.39067  -0.38717  -0.38307  -0.37580  -0.37200
 Alpha  occ. eigenvalues --   -0.36751  -0.36658  -0.36174  -0.35168  -0.34806
 Alpha  occ. eigenvalues --   -0.34419  -0.34296  -0.34211  -0.34154  -0.33506
 Alpha  occ. eigenvalues --   -0.32679  -0.32137  -0.31977  -0.30895  -0.28894
 Alpha  occ. eigenvalues --   -0.28621  -0.28035  -0.27785  -0.27179  -0.27127
 Alpha  occ. eigenvalues --   -0.26785  -0.25287  -0.24564  -0.22258  -0.19119
 Alpha virt. eigenvalues --   -0.12555  -0.08145  -0.06079  -0.03810  -0.02173
 Alpha virt. eigenvalues --   -0.02081  -0.01773  -0.01545  -0.01402  -0.00852
 Alpha virt. eigenvalues --    0.00741   0.01207   0.01519   0.01985   0.03063

 Mulliken charges:
               1
     1  C   -0.133325
     2  O   -0.346577
     3  C    0.174107
     4  C   -0.131263
     5  C   -0.060939
     6  C    0.054101
     7  N   -0.494694
     8  C    0.204382
     9  C   -0.116692
    10  C   -0.041871
    11  C   -0.002573
    12  C   -0.094972
    13  C   -0.116867
    14  H    0.120274
    15  H    0.104537
    16  C   -0.266542
    17  S    0.323847
    18  C   -0.289055
    19  C    0.003062
    20  C   -0.038542
    21  H    0.099449
    22  H    0.127593
    23  C    0.115435
    24  C   -0.117130
    25  C   -0.038987
    26  C   -0.072546
    27  C    0.127547
    28  C    0.140522
    29  N   -0.501072
    30  S    0.564261
    31  N   -0.491625
    32  C    0.036978
    33  C   -0.174598
    34  C    0.066919
    35  N   -0.232155
    36  C    0.432225
    37  O   -0.291262
    38  O   -0.296039
    39  H    0.245869
    40  H    0.113367
    41  H    0.133626
    42  H    0.109272
    43  H    0.094073
    44  H    0.119062
    45  C    0.053521
    46  C   -0.060522
    47  C   -0.131481
    48  C    0.173883
    49  C   -0.085757
    50  C   -0.056089
    51  H    0.107032
    52  H    0.107215
    53  O   -0.346988
    54  C   -0.133332
    55  H    0.112247
    56  H    0.111589
    57  H    0.132164
    58  H    0.108264
    59  H    0.104650
    60  C   -0.056418
    61  C   -0.085173
    62  H    0.107931
    63  H    0.107135
    64  H    0.104285
    65  H    0.108213
    66  H    0.132549
    67  H    0.112753
    68  H    0.111145
 Sum of Mulliken charges =   0.00000

 Dipole moment (field-independent basis, Debye):
    X=             14.2353    Y=             -5.6158    Z=             -1.5887  Tot=             15.3852
 Quadrupole moment (field-independent basis, Debye-Ang):
   XX=           -299.3180   YY=           -266.6071   ZZ=           -266.0623
   XY=             63.7117   XZ=             16.1928   YZ=              5.1632

 Normal termination of Gaussian 09 at Sun May 16 14:27:58 2021.
