 Gaussian 16, Revision B.01,
 Gaussian 16:  ES64L-G16RevB.01 20-Dec-2017

 ------------------------------------
 #N TD(NStates=10) PBE1PBE/6-31G(d,p)
 ------------------------------------

 ----
 Name
 ----
 Symbolic Z-matrix:
 Charge =  0 Multiplicity = 1

                         Standard orientation:
 ---------------------------------------------------------------------
 Center     Atomic      Atomic             Coordinates (Angstroms)
 Number     Number       Type             X           Y           Z
 ---------------------------------------------------------------------
      1          6           0       -8.182487    7.128568   -1.105953
      2          8           0       -7.424227    6.343120   -0.197444
      3          6           0       -7.594299    4.990534   -0.210206
      4          6           0       -8.469618    4.302920   -1.054202
      5          6           0       -8.556066    2.912758   -0.982790
      6          6           0       -7.794556    2.189376   -0.065242
      7          7           0       -7.914267    0.769334    0.020459
      8          6           0       -6.774216   -0.050771    0.005910
      9          6           0       -6.768593   -1.297194    0.659475
     10          6           0       -5.644102   -2.104499    0.641031
     11          6           0       -4.467692   -1.716233   -0.024144
     12          6           0       -4.478614   -0.467096   -0.667243
     13          6           0       -5.599876    0.346473   -0.658344
     14          1           0       -5.576908    1.293575   -1.181667
     15          1           0       -3.602711   -0.138034   -1.215670
     16          6           0       -3.298009   -2.590422   -0.040351
     17         16           0       -1.679247   -1.948306   -0.237981
     18          6           0       -0.956467   -3.542922   -0.138653
     19          6           0       -1.937570   -4.494386    0.044753
     20          6           0       -3.244337   -3.961437    0.093471
     21          1           0       -4.130751   -4.571350    0.204916
     22          1           0       -1.716499   -5.548000    0.153267
     23          6           0        0.466090   -3.755461   -0.253515
     24         16           0        1.625967   -2.489340    0.090960
     25          6           0        2.982405   -3.542881   -0.263590
     26          6           0        2.526680   -4.802500   -0.602800
     27          6           0        1.123658   -4.920823   -0.599690
     28          1           0        0.598595   -5.824193   -0.878894
     29          1           0        3.192024   -5.607489   -0.884805
     30          6           0        4.348203   -3.095277   -0.180959
     31          6           0        5.489847   -3.875750   -0.107659
     32          6           0        6.681322   -3.134897   -0.049206
     33          6           0        6.495056   -1.761727   -0.065502
     34         16           0        4.773393   -1.400692   -0.180140
     35          6           0        7.470840   -0.700054   -0.004172
     36          6           0        7.110588    0.645469    0.018098
     37          6           0        8.027128    1.709041    0.075048
     38          6           0        9.404895    1.522915    0.116380
     39          6           0        9.839338    0.149149    0.096587
     40          6           0        8.893835   -0.951326    0.037490
     41          7           0        9.486622   -2.145534    0.026726
     42         16           0       11.103043   -1.887273    0.087207
     43          7           0       11.109838   -0.250030    0.128721
     44          6           0       10.416144    2.547404    0.177016
     45          6           0       10.318038    3.907627    0.206239
     46          6           0        9.086736    4.624554    0.179205
     47          7           0        8.074009    5.181561    0.156275
     48          6           0       11.527344    4.770239    0.270304
     49          8           0       12.682594    4.060852    0.295141
     50          1           0       13.395218    4.714294    0.336154
     51          8           0       11.502773    5.975544    0.297992
     52          1           0       11.429221    2.163911    0.203953
     53          1           0        7.621846    2.710797    0.088106
     54          1           0        6.059098    0.905844   -0.006957
     55          1           0        7.664200   -3.574760    0.016447
     56          1           0        5.457693   -4.956156   -0.073146
     57          1           0       -5.665615   -3.041239    1.185874
     58          1           0       -7.649607   -1.620623    1.198724
     59          6           0       -9.220243    0.201134    0.115168
     60          6           0      -10.139608    0.682707    1.047013
     61          6           0      -11.428031    0.154911    1.127792
     62          6           0      -11.808286   -0.887709    0.279495
     63          6           0      -10.887142   -1.380914   -0.653708
     64          6           0       -9.616649   -0.837159   -0.741459
     65          1           0       -8.917672   -1.217857   -1.476612
     66          1           0      -11.199291   -2.182431   -1.312207
     67          8           0      -13.035193   -1.482953    0.276218
     68          6           0      -14.013089   -1.020418    1.196578
     69          1           0      -13.687246   -1.158105    2.233800
     70          1           0      -14.254822    0.035405    1.029631
     71          1           0      -14.900545   -1.624742    1.016261
     72          1           0      -12.114575    0.557814    1.860159
     73          1           0       -9.849997    1.486332    1.713561
     74          6           0       -6.927688    2.890499    0.786592
     75          6           0       -6.820574    4.268759    0.708116
     76          1           0       -6.152769    4.816060    1.362263
     77          1           0       -6.334436    2.344841    1.510642
     78          1           0       -9.232054    2.385586   -1.645441
     79          1           0       -9.078993    4.830121   -1.775834
     80          1           0       -7.894368    8.161501   -0.918177
     81          1           0       -7.953658    6.873436   -2.146840
     82          1           0       -9.258874    7.016340   -0.932988
 ---------------------------------------------------------------------

 SCF Done:  E(RPBE1PBE) =  -3726.94294535     A.U. after   17 cycles

 Excitation energies and oscillator strengths:

 Excited State   1:      Singlet-A      1.5460 eV  801.99 nm  f=0.3839  <S**2>=0.000
     202 ->203         0.70511
 This state for optimization and/or second-order correction.
 Total Energy, E(TD-HF/TD-DFT) =  -3726.88613258
 Copying the excited state density for this state as the 1-particle RhoCI density.

 Excited State   2:      Singlet-A      2.0930 eV  592.36 nm  f=0.7183  <S**2>=0.000
     201 ->203         0.69656

 Excited State   3:      Singlet-A      2.6660 eV  465.05 nm  f=0.6395  <S**2>=0.000
     200 ->203        -0.24532
     201 ->204         0.10890
     202 ->204         0.60389
     202 ->205        -0.21703

 Excited State   4:      Singlet-A      2.7812 eV  445.79 nm  f=0.0969  <S**2>=0.000
     200 ->203         0.59324
     201 ->205         0.14423
     202 ->204         0.29744
     202 ->205         0.15246

 Excited State   5:      Singlet-A      2.9553 eV  419.53 nm  f=0.1915  <S**2>=0.000
     200 ->203        -0.24291
     202 ->204         0.13049
     202 ->205         0.64140

 Excited State   6:      Singlet-A      3.1911 eV  388.53 nm  f=0.0036  <S**2>=0.000
     199 ->203         0.70418

 Excited State   7:      Singlet-A      3.2159 eV  385.53 nm  f=0.3340  <S**2>=0.000
     201 ->204         0.66945
     202 ->204        -0.14105

 Excited State   8:      Singlet-A      3.3294 eV  372.39 nm  f=0.0016  <S**2>=0.000
     198 ->203         0.58202
     200 ->203        -0.12896
     201 ->205         0.31715

 Excited State   9:      Singlet-A      3.4760 eV  356.69 nm  f=0.3502  <S**2>=0.000
     198 ->203        -0.28681
     201 ->205         0.53528
     202 ->206         0.29665

 Excited State  10:      Singlet-A      3.5876 eV  345.59 nm  f=0.0967  <S**2>=0.000
     191 ->203        -0.10870
     192 ->203         0.13549
     193 ->203         0.19101
     198 ->203         0.14022
     201 ->205        -0.18346
     202 ->206         0.57261

 The electronic state is 1-A.
 Alpha  occ. eigenvalues --  -89.14303 -89.08128 -89.07985 -89.07110 -19.27708
 Alpha  occ. eigenvalues --  -19.26215 -19.26085 -19.21793 -14.45367 -14.45100
 Alpha  occ. eigenvalues --  -14.43596 -14.39627 -10.37661 -10.31177 -10.30959
 Alpha  occ. eigenvalues --  -10.30249 -10.30091 -10.29990 -10.29596 -10.29574
 Alpha  occ. eigenvalues --  -10.29410 -10.29288 -10.29181 -10.29086 -10.29038
 Alpha  occ. eigenvalues --  -10.28624 -10.28594 -10.28572 -10.28205 -10.27887
 Alpha  occ. eigenvalues --  -10.27727 -10.27649 -10.27459 -10.27192 -10.26780
 Alpha  occ. eigenvalues --  -10.25940 -10.25798 -10.25713 -10.25514 -10.25375
 Alpha  occ. eigenvalues --  -10.25115 -10.24550 -10.24494 -10.24472 -10.24461
 Alpha  occ. eigenvalues --  -10.24423 -10.24416 -10.24364 -10.24360 -10.24266
 Alpha  occ. eigenvalues --  -10.23995 -10.23874 -10.23829 -10.23786  -8.10588
 Alpha  occ. eigenvalues --   -8.04908  -8.04752  -8.03879  -6.04449  -6.03862
 Alpha  occ. eigenvalues --   -6.03630  -5.98654  -5.98498  -5.98288  -5.98132
 Alpha  occ. eigenvalues --   -5.97899  -5.97745  -5.97621  -5.97257  -5.96881
 Alpha  occ. eigenvalues --   -1.14139  -1.09810  -1.09692  -1.06460  -1.04911
 Alpha  occ. eigenvalues --   -0.99448  -0.94071  -0.93559  -0.93204  -0.92437
 Alpha  occ. eigenvalues --   -0.91120  -0.90111  -0.88520  -0.88462  -0.86613
 Alpha  occ. eigenvalues --   -0.85957  -0.82469  -0.80896  -0.80173  -0.79206
 Alpha  occ. eigenvalues --   -0.78980  -0.78137  -0.77855  -0.77730  -0.77218
 Alpha  occ. eigenvalues --   -0.76615  -0.76426  -0.75572  -0.75052  -0.72761
 Alpha  occ. eigenvalues --   -0.72429  -0.70823  -0.69607  -0.67484  -0.66466
 Alpha  occ. eigenvalues --   -0.65423  -0.64843  -0.64654  -0.63817  -0.63362
 Alpha  occ. eigenvalues --   -0.62982  -0.61804  -0.61348  -0.60885  -0.59391
 Alpha  occ. eigenvalues --   -0.58104  -0.57128  -0.56004  -0.55904  -0.55776
 Alpha  occ. eigenvalues --   -0.55521  -0.54845  -0.54359  -0.54050  -0.53972
 Alpha  occ. eigenvalues --   -0.53098  -0.52096  -0.51074  -0.50865  -0.50818
 Alpha  occ. eigenvalues --   -0.49784  -0.49678  -0.48885  -0.48696  -0.48565
 Alpha  occ. eigenvalues --   -0.48493  -0.47242  -0.47179  -0.46978  -0.46531
 Alpha  occ. eigenvalues --   -0.46291  -0.45980  -0.44971  -0.44420  -0.44319
 Alpha  occ. eigenvalues --   -0.43912  -0.43807  -0.43737  -0.43500  -0.43396
 Alpha  occ. eigenvalues --   -0.43072  -0.42868  -0.42497  -0.42126  -0.41984
 Alpha  occ. eigenvalues --   -0.41961  -0.41160  -0.40853  -0.40411  -0.40273
 Alpha  occ. eigenvalues --   -0.40153  -0.39844  -0.39713  -0.39641  -0.39584
 Alpha  occ. eigenvalues --   -0.38808  -0.38622  -0.38256  -0.37914  -0.37604
 Alpha  occ. eigenvalues --   -0.37437  -0.37230  -0.37056  -0.36483  -0.36419
 Alpha  occ. eigenvalues --   -0.35705  -0.34961  -0.34719  -0.34431  -0.34247
 Alpha  occ. eigenvalues --   -0.34048  -0.33935  -0.33777  -0.33537  -0.32534
 Alpha  occ. eigenvalues --   -0.32160  -0.31298  -0.29903  -0.29511  -0.29087
 Alpha  occ. eigenvalues --   -0.28068  -0.27600  -0.27423  -0.27294  -0.26769
 Alpha  occ. eigenvalues --   -0.26720  -0.26351  -0.25300  -0.24142  -0.23170
 Alpha  occ. eigenvalues --   -0.20466  -0.18231
 Alpha virt. eigenvalues --   -0.11647  -0.06934  -0.06439  -0.03435  -0.01495
 Alpha virt. eigenvalues --   -0.01159  -0.00485   0.00101   0.00287   0.00333
 Alpha virt. eigenvalues --    0.00689   0.00834   0.01718   0.03069   0.03230

 Mulliken charges:
               1
     1  C   -0.154422
     2  O   -0.529399
     3  C    0.350246
     4  C   -0.183448
     5  C   -0.133364
     6  C    0.198261
     7  N   -0.671886
     8  C    0.278058
     9  C   -0.156339
    10  C   -0.143192
    11  C    0.099520
    12  C   -0.173830
    13  C   -0.155942
    14  H    0.146681
    15  H    0.142408
    16  C   -0.263262
    17  S    0.323815
    18  C   -0.222585
    19  C   -0.084909
    20  C   -0.108172
    21  H    0.137774
    22  H    0.137425
    23  C   -0.210668
    24  S    0.340328
    25  C   -0.225574
    26  C   -0.085005
    27  C   -0.093919
    28  H    0.142666
    29  H    0.142838
    30  C   -0.199837
    31  C   -0.098183
    32  C   -0.084390
    33  C   -0.288514
    34  S    0.340068
    35  C    0.201785
    36  C   -0.221966
    37  C   -0.162189
    38  C    0.096100
    39  C    0.180064
    40  C    0.208480
    41  N   -0.598282
    42  S    0.618325
    43  N   -0.585038
    44  C   -0.075619
    45  C   -0.061542
    46  C    0.318024
    47  N   -0.503103
    48  C    0.625899
    49  O   -0.521215
    50  H    0.344627
    51  O   -0.462524
    52  H    0.201200
    53  H    0.176194
    54  H    0.161482
    55  H    0.177498
    56  H    0.143289
    57  H    0.128645
    58  H    0.144769
    59  C    0.198811
    60  C   -0.133377
    61  C   -0.183522
    62  C    0.349796
    63  C   -0.165497
    64  C   -0.125686
    65  H    0.144616
    66  H    0.141997
    67  O   -0.530168
    68  C   -0.154320
    69  H    0.138224
    70  H    0.137776
    71  H    0.156488
    72  H    0.130020
    73  H    0.143017
    74  C   -0.125494
    75  C   -0.165029
    76  H    0.143740
    77  H    0.145392
    78  H    0.142164
    79  H    0.129918
    80  H    0.157238
    81  H    0.138635
    82  H    0.137114
 Sum of Mulliken charges =  -0.00000

 Dipole moment (field-independent basis, Debye):
    X=             -6.9529    Y=             -5.7167    Z=             -0.2208  Tot=              9.0040
 Quadrupole moment (field-independent basis, Debye-Ang):
   XX=           -236.7822   YY=           -328.3735   ZZ=           -333.0326
   XY=            -67.6268   XZ=             -7.1753   YZ=             -7.1442

 Normal termination of Gaussian 16 at Thu Jul  8 11:59:44 2021.
