 Gaussian 16, Revision B.01,
 Gaussian 16:  ES64L-G16RevB.01 20-Dec-2017

 ---------------------------------------
 #N TD(NStates=10) CAM-B3lYP/6-311G(d,p)
 ---------------------------------------

 ----
 Name
 ----
 Symbolic Z-matrix:
 Charge =  0 Multiplicity = 1

                         Standard orientation:
 ---------------------------------------------------------------------
 Center     Atomic      Atomic             Coordinates (Angstroms)
 Number     Number       Type             X           Y           Z
 ---------------------------------------------------------------------
      1          6           0        9.572500   -2.625230    0.622714
      2          6           0        8.239196   -1.991206    0.350223
      3          6           0        8.066035   -0.662939   -0.006048
      4          6           0        9.037824    0.329136   -0.178257
      5          6           0        9.868849    1.200972   -0.330786
      6          6           0       10.832902    2.223419   -0.509322
      7          6           0       12.201950    1.967704   -0.302263
      8          6           0       13.138535    2.976377   -0.470222
      9          6           0       12.744022    4.265838   -0.849649
     10          6           0       13.707576    5.391186   -1.067154
     11          8           0       14.936269    5.262229   -0.496154
     12          8           0       13.444192    6.372847   -1.707431
     13          6           0       11.385741    4.515923   -1.081711
     14          6           0       10.442067    3.519119   -0.906263
     15         16           0        6.367486   -0.285381   -0.247341
     16          6           0        5.892851   -1.931697    0.136652
     17          6           0        4.491240   -2.321388    0.119400
     18          6           0        4.045086   -3.656567    0.426643
     19          7           0        4.826441   -4.685318    0.757553
     20         16           0        3.855372   -5.979721    1.008542
     21          7           0        2.404868   -5.284678    0.707382
     22          6           0        2.628103   -4.007303    0.397647
     23          6           0        3.477946   -1.431110   -0.195564
     24          6           0        2.110145   -1.768213   -0.221970
     25          6           0        1.618507   -3.032369    0.062827
     26          6           0        0.200274   -3.344310    0.024624
     27         16           0       -0.978552   -2.124581   -0.437665
     28          6           0       -0.451555   -4.524327    0.308653
     29          6           0       -1.866186   -4.474899    0.179422
     30          6           0       -2.739275   -5.660670    0.497717
     31          6           0       -2.317711   -3.230734   -0.215118
     32          6           0       -3.689063   -2.757154   -0.457375
     33          6           0       -4.589015   -3.540927   -1.209351
     34          6           0       -5.867652   -3.088000   -1.501455
     35          6           0       -4.105764   -1.510631    0.031617
     36          6           0       -5.403856   -1.047611   -0.203123
     37          6           0       -6.253955   -1.838216   -1.020255
     38          7           0       -7.435109   -1.157498   -1.249887
     39          6           0       -8.634127   -1.833175   -1.718003
     40          6           0       -7.360400    0.089678   -0.632982
     41          6           0       -6.156296    0.155140    0.118542
     42          6           0       -5.987749    1.267289    0.981336
     43          6           0       -6.883402    2.369861    0.964180
     44          6           0       -6.497472    3.242595    2.059568
     45          6           0       -7.033648    4.384988    2.672851
     46          6           0       -6.401217    4.940793    3.778761
     47          6           0       -5.235774    4.370533    4.304751
     48          6           0       -4.704060    3.211801    3.751516
     49          6           0       -5.351325    2.651750    2.649384
     50          7           0       -5.061991    1.459295    1.999834
     51          6           0       -4.207686    0.450846    2.605945
     52          6           0       -7.921813    2.358980    0.002547
     53          6           0       -8.220281    1.205743   -0.771821
     54          6           0       -9.312962    1.571147   -1.661645
     55          6           0       -9.632895    2.919542   -1.357383
     56          7           0       -8.779443    3.386228   -0.367765
     57          6           0       -8.567981    4.810508   -0.161228
     58          6           0      -10.628968    3.627450   -2.029638
     59          6           0      -11.314396    2.982705   -3.052244
     60          6           0      -10.991458    1.666990   -3.402555
     61          6           0       -9.999776    0.966209   -2.724938
     62          6           0        7.009795   -2.689606    0.425960
     63          1           0       10.381571   -1.899431    0.536912
     64          1           0        9.767996   -3.438633   -0.082877
     65          1           0        9.601650   -3.053173    1.629290
     66          1           0       12.518966    0.972137   -0.018074
     67          1           0       14.187707    2.731158   -0.337395
     68          1           0       14.943136    4.517058    0.115055
     69          1           0       11.092449    5.508422   -1.400004
     70          1           0        9.392654    3.724733   -1.076925
     71          1           0        3.734918   -0.406575   -0.439178
     72          1           0        1.413764   -0.979800   -0.482094
     73          1           0        0.082118   -5.408663    0.622755
     74          1           0       -2.326673   -6.219817    1.341206
     75          1           0       -2.803366   -6.353436   -0.348561
     76          1           0       -3.754757   -5.356365    0.754493
     77          1           0       -4.256931   -4.487894   -1.614906
     78          1           0       -6.527019   -3.678286   -2.126191
     79          1           0       -3.397248   -0.916793    0.588840
     80          1           0       -8.669310   -1.903308   -2.809266
     81          1           0       -9.514439   -1.304965   -1.361471
     82          1           0       -8.656745   -2.845031   -1.306219
     83          1           0       -7.951805    4.829499    2.318867
     84          1           0       -6.822509    5.824297    4.244431
     85          1           0       -4.749911    4.826352    5.159705
     86          1           0       -3.811723    2.761687    4.168884
     87          1           0       -4.598775   -0.540911    2.394537
     88          1           0       -4.210287    0.588970    3.688162
     89          1           0       -3.174548    0.515860    2.251874
     90          1           0       -7.549779    4.985612    0.174886
     91          1           0       -9.266547    5.229593    0.569169
     92          1           0       -8.706522    5.332766   -1.110468
     93          1           0      -10.866518    4.650342   -1.763883
     94          1           0      -12.096272    3.508388   -3.588056
     95          1           0      -11.516694    1.186325   -4.219928
     96          1           0       -9.760401   -0.033771   -3.050741
     97          1           0        6.935361   -3.733875    0.688510
 ---------------------------------------------------------------------

 SCF Done:  E(RCAM-B3LYP) =  -3620.70070480     A.U. after   19 cycles

 Excitation energies and oscillator strengths:

 Excited State   1:      Singlet-A      2.4864 eV  498.66 nm  f=1.2051  <S**2>=0.000
     221 -> 224        0.50241
     223 -> 224        0.45993
 This state for optimization and/or second-order correction.
 Total Energy, E(TD-HF/TD-DFT) =  -3620.60933291
 Copying the excited state density for this state as the 1-particle RhoCI density.

 Excited State   2:      Singlet-A      3.3877 eV  365.99 nm  f=0.2102  <S**2>=0.000
     219 -> 224       -0.15636
     220 -> 224        0.31117
     221 -> 224       -0.37542
     222 -> 224        0.11700
     223 -> 224        0.42140

 Excited State   3:      Singlet-A      3.4696 eV  357.34 nm  f=0.0341  <S**2>=0.000
     220 -> 224       -0.13630
     222 -> 224        0.66733

 Excited State   4:      Singlet-A      3.5945 eV  344.93 nm  f=0.6488  <S**2>=0.000
     217 -> 224        0.10920
     219 -> 224       -0.15182
     220 -> 224        0.13714
     220 -> 225       -0.17908
     221 -> 224        0.15792
     221 -> 225        0.42955
     221 -> 226       -0.11385
     223 -> 224       -0.19686
     223 -> 225        0.27751
     223 -> 226       -0.15425

 Excited State   5:      Singlet-A      3.8152 eV  324.98 nm  f=0.1824  <S**2>=0.000
     213 -> 224       -0.10713
     219 -> 224       -0.26123
     220 -> 224        0.43553
     220 -> 225        0.11118
     221 -> 224        0.19462
     221 -> 225       -0.19045
     221 -> 226        0.13709
     223 -> 224       -0.21948
     223 -> 225       -0.15572

 Excited State   6:      Singlet-A      3.8991 eV  317.98 nm  f=0.0331  <S**2>=0.000
     221 -> 227       -0.17475
     222 -> 226       -0.12859
     222 -> 228       -0.33384
     222 -> 229        0.14762
     223 -> 226       -0.19053
     223 -> 227        0.43195

 Excited State   7:      Singlet-A      4.0520 eV  305.98 nm  f=0.0221  <S**2>=0.000
     221 -> 228       -0.13662
     221 -> 229        0.10683
     222 -> 226       -0.18267
     222 -> 227        0.41738
     222 -> 229        0.11131
     223 -> 226        0.22362
     223 -> 228        0.33594

 Excited State   8:      Singlet-A      4.1617 eV  297.91 nm  f=0.5916  <S**2>=0.000
     212 -> 224        0.16624
     214 -> 224       -0.17355
     215 -> 224       -0.14686
     217 -> 224       -0.12329
     219 -> 224        0.10735
     221 -> 225        0.10346
     221 -> 226        0.26729
     222 -> 227       -0.21057
     222 -> 228       -0.20606
     223 -> 226        0.30088
     223 -> 229        0.12675
     223 -> 230        0.10095

 Excited State   9:      Singlet-A      4.2023 eV  295.04 nm  f=0.0646  <S**2>=0.000
     215 -> 224        0.52381
     215 -> 225        0.11548
     216 -> 224        0.20778
     217 -> 224        0.20817
     221 -> 226        0.12231
     223 -> 226        0.14182

 Excited State  10:      Singlet-A      4.3326 eV  286.17 nm  f=0.1413  <S**2>=0.000
     212 -> 224       -0.13072
     214 -> 224        0.55880
     217 -> 224       -0.11186
     222 -> 228       -0.15834
     223 -> 227       -0.15103

 The electronic state is 1-A.
 Alpha  occ. eigenvalues --  -89.01896 -88.95342 -88.94332 -19.23814 -19.17706
 Alpha  occ. eigenvalues --  -14.43554 -14.43323 -14.43269 -14.43260 -14.43181
 Alpha  occ. eigenvalues --  -10.38400 -10.31752 -10.31686 -10.30004 -10.29878
 Alpha  occ. eigenvalues --  -10.29834 -10.29809 -10.29702 -10.29605 -10.29213
 Alpha  occ. eigenvalues --  -10.29199 -10.29066 -10.28758 -10.28697 -10.28650
 Alpha  occ. eigenvalues --  -10.28592 -10.28344 -10.28215 -10.28204 -10.28166
 Alpha  occ. eigenvalues --  -10.28090 -10.27505 -10.27482 -10.27365 -10.27146
 Alpha  occ. eigenvalues --  -10.27104 -10.27014 -10.26654 -10.26384 -10.26109
 Alpha  occ. eigenvalues --  -10.26082 -10.25769 -10.25594 -10.25472 -10.25457
 Alpha  occ. eigenvalues --  -10.25454 -10.25419 -10.25331 -10.25309 -10.25222
 Alpha  occ. eigenvalues --  -10.25076 -10.25041 -10.24824 -10.24796 -10.24792
 Alpha  occ. eigenvalues --  -10.24763 -10.24745 -10.24544 -10.24495 -10.24356
 Alpha  occ. eigenvalues --  -10.24034 -10.23978  -8.10423  -8.04253  -8.03266
 Alpha  occ. eigenvalues --   -6.06940  -6.06338  -6.06101  -6.00669  -6.00269
 Alpha  occ. eigenvalues --   -5.99873  -5.99671  -5.99276  -5.98905  -1.18808
 Alpha  occ. eigenvalues --   -1.12114  -1.10557  -1.08409  -1.07557  -1.07322
 Alpha  occ. eigenvalues --   -0.99491  -0.98757  -0.97756  -0.97445  -0.95863
 Alpha  occ. eigenvalues --   -0.94216  -0.93771  -0.93361  -0.93333  -0.90063
 Alpha  occ. eigenvalues --   -0.89216  -0.88630  -0.88434  -0.86428  -0.86109
 Alpha  occ. eigenvalues --   -0.85677  -0.85596  -0.85225  -0.84120  -0.83636
 Alpha  occ. eigenvalues --   -0.83153  -0.83034  -0.82049  -0.81680  -0.81222
 Alpha  occ. eigenvalues --   -0.80138  -0.78200  -0.77052  -0.76915  -0.76865
 Alpha  occ. eigenvalues --   -0.76078  -0.74515  -0.73845  -0.71686  -0.71304
 Alpha  occ. eigenvalues --   -0.71166  -0.70656  -0.70406  -0.70124  -0.69247
 Alpha  occ. eigenvalues --   -0.68571  -0.67092  -0.66702  -0.66046  -0.64940
 Alpha  occ. eigenvalues --   -0.64559  -0.64493  -0.64222  -0.62751  -0.62083
 Alpha  occ. eigenvalues --   -0.61153  -0.61036  -0.60451  -0.59312  -0.59259
 Alpha  occ. eigenvalues --   -0.58900  -0.58752  -0.57203  -0.56586  -0.56456
 Alpha  occ. eigenvalues --   -0.56358  -0.55600  -0.55138  -0.54665  -0.54452
 Alpha  occ. eigenvalues --   -0.54226  -0.54056  -0.53756  -0.53525  -0.53207
 Alpha  occ. eigenvalues --   -0.52898  -0.52618  -0.51968  -0.51768  -0.51652
 Alpha  occ. eigenvalues --   -0.51517  -0.51490  -0.51353  -0.51307  -0.50749
 Alpha  occ. eigenvalues --   -0.50526  -0.50408  -0.50290  -0.49995  -0.49388
 Alpha  occ. eigenvalues --   -0.49296  -0.48498  -0.48436  -0.48138  -0.47535
 Alpha  occ. eigenvalues --   -0.47361  -0.47338  -0.47325  -0.46911  -0.46494
 Alpha  occ. eigenvalues --   -0.46378  -0.46131  -0.45987  -0.45867  -0.45731
 Alpha  occ. eigenvalues --   -0.45427  -0.45339  -0.44840  -0.44822  -0.44664
 Alpha  occ. eigenvalues --   -0.44334  -0.43534  -0.43274  -0.43180  -0.42671
 Alpha  occ. eigenvalues --   -0.42558  -0.42327  -0.41890  -0.41492  -0.41023
 Alpha  occ. eigenvalues --   -0.40616  -0.40424  -0.40221  -0.40015  -0.39850
 Alpha  occ. eigenvalues --   -0.39568  -0.38902  -0.38719  -0.37447  -0.36060
 Alpha  occ. eigenvalues --   -0.35280  -0.35039  -0.34708  -0.34536  -0.34346
 Alpha  occ. eigenvalues --   -0.33656  -0.33211  -0.32609  -0.31267  -0.30523
 Alpha  occ. eigenvalues --   -0.30343  -0.30046  -0.29558  -0.28100  -0.26810
 Alpha  occ. eigenvalues --   -0.24362  -0.23559  -0.23152
 Alpha virt. eigenvalues --   -0.07491  -0.03927  -0.00637   0.00382   0.00648
 Alpha virt. eigenvalues --    0.01247   0.01456   0.02519   0.04256   0.04263
 Alpha virt. eigenvalues --    0.04820   0.04857   0.05444   0.05555   0.06222

 Mulliken charges:
               1
     1  C   -0.233111
     2  C    0.014707
     3  C   -0.439513
     4  C    0.055103
     5  C   -0.008580
     6  C   -0.147943
     7  C   -0.030044
     8  C   -0.076973
     9  C   -0.231186
    10  C    0.415199
    11  O   -0.298004
    12  O   -0.295988
    13  C   -0.031138
    14  C   -0.027344
    15  S    0.321822
    16  C   -0.226517
    17  C    0.043207
    18  C    0.126196
    19  N   -0.489878
    20  S    0.565566
    21  N   -0.482115
    22  C    0.120234
    23  C   -0.089193
    24  C   -0.109757
    25  C    0.079246
    26  C   -0.289857
    27  S    0.298741
    28  C    0.021862
    29  C   -0.046674
    30  C   -0.272242
    31  C   -0.282822
    32  C   -0.055002
    33  C   -0.064170
    34  C   -0.088444
    35  C   -0.047316
    36  C   -0.040997
    37  C    0.201715
    38  N   -0.545169
    39  C   -0.204403
    40  C    0.234223
    41  C   -0.095083
    42  C    0.274347
    43  C   -0.130239
    44  C   -0.012368
    45  C   -0.058298
    46  C   -0.121689
    47  C   -0.103798
    48  C   -0.096711
    49  C    0.180358
    50  N   -0.551921
    51  C   -0.199940
    52  C    0.261812
    53  C   -0.110862
    54  C   -0.003277
    55  C    0.184068
    56  N   -0.543645
    57  C   -0.203440
    58  C   -0.099947
    59  C   -0.102062
    60  C   -0.121875
    61  C   -0.056899
    62  C   -0.003310
    63  H    0.121206
    64  H    0.131477
    65  H    0.129797
    66  H    0.114243
    67  H    0.100533
    68  H    0.244439
    69  H    0.131893
    70  H    0.117486
    71  H    0.114615
    72  H    0.113907
    73  H    0.126859
    74  H    0.121250
    75  H    0.128274
    76  H    0.131785
    77  H    0.109953
    78  H    0.107753
    79  H    0.125219
    80  H    0.136139
    81  H    0.152332
    82  H    0.132549
    83  H    0.107228
    84  H    0.095290
    85  H    0.098618
    86  H    0.107494
    87  H    0.151314
    88  H    0.129932
    89  H    0.137118
    90  H    0.153677
    91  H    0.132418
    92  H    0.132061
    93  H    0.107300
    94  H    0.098597
    95  H    0.094326
    96  H    0.103023
    97  H    0.131234
 Sum of Mulliken charges =  -0.00000

 Dipole moment (field-independent basis, Debye):
    X=             -4.4948    Y=             -5.1862    Z=              2.6048  Tot=              7.3406
 Quadrupole moment (field-independent basis, Debye-Ang):
   XX=           -381.5284   YY=           -382.2175   ZZ=           -381.9261
   XY=            -67.3700   XZ=             43.6746   YZ=             14.3748

 Normal termination of Gaussian 16 at Mon Jul 19 17:02:27 2021.
