 Gaussian 16, Revision B.01,
 Gaussian 16:  ES64L-G16RevB.01 20-Dec-2017

 ------------------------
 #N B3LYP/6-311G(d,p) OPT
 ------------------------

 ------------
 C61H46O6N4S3
 ------------
 Symbolic Z-matrix:
 Charge =  0 Multiplicity = 1

 SCF Done:  E(RB3LYP) =  -2439.36619691     A.U. after   19 cycles
 SCF Done:  E(RB3LYP) =  -2439.40914754     A.U. after   14 cycles
 SCF Done:  E(RB3LYP) =  -2439.42013398     A.U. after   13 cycles
 SCF Done:  E(RB3LYP) =  -2439.42261784     A.U. after   14 cycles
 SCF Done:  E(RB3LYP) =  -2439.42365654     A.U. after   13 cycles
 SCF Done:  E(RB3LYP) =  -2439.42499073     A.U. after   14 cycles
 SCF Done:  E(RB3LYP) =  -2439.42803198     A.U. after   14 cycles
 SCF Done:  E(RB3LYP) =  -2439.43164828     A.U. after   14 cycles
 SCF Done:  E(RB3LYP) =  -2439.43909750     A.U. after   16 cycles
 SCF Done:  E(RB3LYP) =  -2439.44180519     A.U. after   15 cycles
 SCF Done:  E(RB3LYP) =  -2439.44372763     A.U. after   10 cycles
 SCF Done:  E(RB3LYP) =  -2439.44373038     A.U. after   10 cycles
 SCF Done:  E(RB3LYP) =  -2439.44372951     A.U. after   10 cycles
 SCF Done:  E(RB3LYP) =  -2439.44373268     A.U. after   10 cycles
 SCF Done:  E(RB3LYP) =  -2439.44373872     A.U. after   10 cycles
 SCF Done:  E(RB3LYP) =  -2439.44374077     A.U. after   10 cycles
 SCF Done:  E(RB3LYP) =  -2439.44374119     A.U. after   10 cycles
 SCF Done:  E(RB3LYP) =  -2439.44374123     A.U. after    7 cycles
 SCF Done:  E(RB3LYP) =  -2439.44374124     A.U. after    6 cycles
 SCF Done:  E(RB3LYP) =  -2439.44374124     A.U. after    6 cycles
 Optimization completed.
    -- Stationary point found.

                         Standard orientation:
 ---------------------------------------------------------------------
 Center     Atomic      Atomic             Coordinates (Angstroms)
 Number     Number       Type             X           Y           Z
 ---------------------------------------------------------------------
      1          6           0       -7.429317    2.420286   -0.708192
      2          6           0       -6.350626    1.404963   -0.443296
      3          6           0       -6.589790    0.069624   -0.098073
      4          6           0       -7.874550   -0.507255    0.049827
      5          6           0       -8.272160   -1.775189    0.375342
      6          6           0       -7.388491   -2.849279    0.650765
      7          7           0       -6.740414   -3.780914    0.889588
      8          6           0       -9.747439   -2.043515    0.444062
      9          8           0      -10.117901   -3.302116    0.766693
     10          8           0      -10.575993   -1.198209    0.227311
     11         16           0       -5.074662   -0.792942    0.127261
     12          6           0       -4.140013    0.636554   -0.243424
     13          6           0       -2.687196    0.593933   -0.233320
     14          6           0       -1.984928   -0.570050    0.038514
     15          6           0       -0.578433   -0.654393    0.068698
     16          6           0        0.263634    0.417497   -0.180777
     17          6           0        1.725470    0.277966   -0.160022
     18          6           0        2.323121   -0.940486   -0.532607
     19          6           0        3.697086   -1.143905   -0.499272
     20          6           0        4.520283   -0.096061   -0.068691
     21          7           0        5.902349   -0.038487    0.022350
     22          6           0        6.811926   -1.083047   -0.231401
     23          6           0        8.028040   -0.827069   -0.879547
     24          6           0        8.938770   -1.853113   -1.108438
     25          6           0        8.677399   -3.167467   -0.713346
     26          6           0        9.651651   -4.284008   -0.999055
     27          6           0        7.468059   -3.411675   -0.054222
     28          6           0        6.554027   -2.395067    0.194518
     29          6           0        6.349775    1.341747    0.320786
     30          6           0        5.033415    2.099064    0.691521
     31          6           0        5.161505    2.406321    2.204043
     32          6           0        6.673219    2.578660    2.409238
     33          6           0        7.287546    1.457928    1.549217
     34          6           0        3.943655    1.138816    0.288925
     35          6           0        2.580449    1.330151    0.241022
     36          6           0       -0.411767    1.657656   -0.470171
     37          7           0        0.185364    2.815799   -0.758362
     38         16           0       -0.989059    3.919651   -1.030758
     39          7           0       -2.306609    2.971744   -0.799845
     40          6           0       -1.868060    1.748424   -0.499906
     41          6           0       -4.979848    1.705526   -0.520262
     42          1           0       -8.065740    2.122543   -1.546157
     43          1           0       -6.987656    3.387061   -0.951549
     44          1           0       -8.076533    2.557432    0.162466
     45          1           0       -8.709955    0.165667   -0.123361
     46          1           0       -9.346885   -3.868323    0.911917
     47          1           0       -2.536446   -1.477729    0.256393
     48          1           0       -0.143000   -1.610565    0.330331
     49          1           0        1.697824   -1.744021   -0.903694
     50          1           0        4.111182   -2.083553   -0.837371
     51          1           0        8.264331    0.176266   -1.211233
     52          1           0        9.872082   -1.622950   -1.612464
     53          1           0       10.670225   -3.905708   -1.110550
     54          1           0        9.393206   -4.807332   -1.926390
     55          1           0        9.653643   -5.026648   -0.197233
     56          1           0        7.242228   -4.415572    0.291657
     57          1           0        5.649201   -2.611468    0.747466
     58          1           0        6.810362    1.777098   -0.572324
     59          1           0        4.964604    3.037936    0.135785
     60          1           0        4.797667    1.553427    2.786174
     61          1           0        4.577867    3.280249    2.501397
     62          1           0        6.975003    2.516174    3.457306
     63          1           0        6.990926    3.559379    2.037410
     64          1           0        7.272210    0.512906    2.098850
     65          1           0        8.324701    1.654351    1.271377
     66          1           0        2.160729    2.289471    0.509717
     67          1           0       -4.594387    2.680940   -0.772857
 ---------------------------------------------------------------------

 The electronic state is 1-A.
 Alpha  occ. eigenvalues --  -88.94794 -88.88917 -19.16256 -19.10064 -14.35971
 Alpha  occ. eigenvalues --  -14.35861 -14.35515 -14.32179 -10.30816 -10.24485
 Alpha  occ. eigenvalues --  -10.24278 -10.23599 -10.22648 -10.22647 -10.22609
 Alpha  occ. eigenvalues --  -10.22476 -10.22430 -10.22253 -10.22044 -10.21787
 Alpha  occ. eigenvalues --  -10.21491 -10.21248 -10.20465 -10.19625 -10.19502
 Alpha  occ. eigenvalues --  -10.19091 -10.18861 -10.18698 -10.18679 -10.18621
 Alpha  occ. eigenvalues --  -10.18343 -10.18340 -10.18296 -10.18222 -10.18199
 Alpha  occ. eigenvalues --  -10.18171 -10.18060 -10.18039 -10.18010 -10.17964
 Alpha  occ. eigenvalues --  -10.17557  -8.03067  -7.97571  -5.99482  -5.98899
 Alpha  occ. eigenvalues --   -5.98672  -5.93877  -5.93493  -5.93134  -1.10490
 Alpha  occ. eigenvalues --   -1.03741  -1.02347  -0.98675  -0.92488  -0.91553
 Alpha  occ. eigenvalues --   -0.90706  -0.88492  -0.87666  -0.85792  -0.84797
 Alpha  occ. eigenvalues --   -0.83818  -0.81089  -0.79352  -0.78085  -0.77774
 Alpha  occ. eigenvalues --   -0.77148  -0.76324  -0.75810  -0.74106  -0.72533
 Alpha  occ. eigenvalues --   -0.71307  -0.70552  -0.69505  -0.67534  -0.65920
 Alpha  occ. eigenvalues --   -0.63989  -0.63500  -0.62684  -0.62504  -0.61628
 Alpha  occ. eigenvalues --   -0.60784  -0.59459  -0.59101  -0.58821  -0.57852
 Alpha  occ. eigenvalues --   -0.56495  -0.54964  -0.54509  -0.52729  -0.52128
 Alpha  occ. eigenvalues --   -0.51222  -0.50825  -0.50110  -0.49608  -0.48756
 Alpha  occ. eigenvalues --   -0.47961  -0.47677  -0.47123  -0.46469  -0.46142
 Alpha  occ. eigenvalues --   -0.45683  -0.45199  -0.44922  -0.44548  -0.44520
 Alpha  occ. eigenvalues --   -0.44031  -0.43805  -0.43250  -0.43213  -0.43006
 Alpha  occ. eigenvalues --   -0.41900  -0.41388  -0.40944  -0.40495  -0.39951
 Alpha  occ. eigenvalues --   -0.39926  -0.39726  -0.39429  -0.38981  -0.38661
 Alpha  occ. eigenvalues --   -0.38585  -0.38285  -0.38066  -0.37484  -0.37292
 Alpha  occ. eigenvalues --   -0.37005  -0.36907  -0.36434  -0.36049  -0.35532
 Alpha  occ. eigenvalues --   -0.35489  -0.35300  -0.35255  -0.34813  -0.34560
 Alpha  occ. eigenvalues --   -0.33810  -0.33149  -0.32665  -0.31630  -0.31359
 Alpha  occ. eigenvalues --   -0.31059  -0.28248  -0.28217  -0.27562  -0.26755
 Alpha  occ. eigenvalues --   -0.26728  -0.26101  -0.25607  -0.22478  -0.19326
 Alpha virt. eigenvalues --   -0.11729  -0.09029  -0.03917  -0.02485  -0.02266
 Alpha virt. eigenvalues --   -0.01947  -0.00921  -0.00758  -0.00660   0.00417
 Alpha virt. eigenvalues --    0.01927   0.02212   0.02930   0.03531   0.03971

 Mulliken charges:
               1
     1  C   -0.254572
     2  C   -0.021305
     3  C   -0.305510
     4  C    0.062481
     5  C   -0.207129
     6  C   -0.020496
     7  N   -0.232397
     8  C    0.458789
     9  O   -0.302390
    10  O   -0.325938
    11  S    0.379355
    12  C   -0.286042
    13  C    0.090890
    14  C   -0.100369
    15  C   -0.083477
    16  C    0.015086
    17  C   -0.030140
    18  C   -0.075943
    19  C   -0.087025
    20  C    0.305601
    21  N   -0.542411
    22  C    0.183731
    23  C   -0.086223
    24  C   -0.073987
    25  C   -0.101363
    26  C   -0.256415
    27  C   -0.078811
    28  C   -0.111020
    29  C   -0.011370
    30  C   -0.175528
    31  C   -0.152082
    32  C   -0.235271
    33  C   -0.170206
    34  C   -0.148000
    35  C   -0.004037
    36  C    0.106635
    37  N   -0.484051
    38  S    0.556899
    39  N   -0.512282
    40  C    0.145875
    41  C    0.011981
    42  H    0.139934
    43  H    0.120266
    44  H    0.139629
    45  H    0.139419
    46  H    0.253926
    47  H    0.113225
    48  H    0.101423
    49  H    0.095957
    50  H    0.112190
    51  H    0.097178
    52  H    0.085221
    53  H    0.111019
    54  H    0.127641
    55  H    0.114988
    56  H    0.087000
    57  H    0.115588
    58  H    0.134511
    59  H    0.136590
    60  H    0.118356
    61  H    0.119080
    62  H    0.119322
    63  H    0.109259
    64  H    0.130782
    65  H    0.116501
    66  H    0.095936
    67  H    0.123528
 Sum of Mulliken charges =  -0.00000

 Dipole moment (field-independent basis, Debye):
    X=             10.8828    Y=              3.6901    Z=             -0.3610  Tot=             11.4970
 Quadrupole moment (field-independent basis, Debye-Ang):
   XX=           -296.4459   YY=           -240.4839   ZZ=           -254.5177
   XY=            -28.3299   XZ=              7.0961   YZ=              2.1625

 Normal termination of Gaussian 16 at Wed Aug  4 04:40:46 2021.
