 Gaussian 16, Revision B.01,
 Gaussian 16:  ES64L-G16RevB.01 20-Dec-2017

 -----------------------------------
 #N TD(NStates=10) M062X/6-311G(d,p)
 -----------------------------------

 ----
 Name
 ----
 Symbolic Z-matrix:
 Charge =  0 Multiplicity = 1

                         Standard orientation:
 ---------------------------------------------------------------------
 Center     Atomic      Atomic             Coordinates (Angstroms)
 Number     Number       Type             X           Y           Z
 ---------------------------------------------------------------------
      1          6           0       -0.937367   -3.073447    0.186672
      2          6           0       -2.122867   -2.115248    0.081661
      3          6           0       -1.679316   -0.804099   -0.068452
      4          6           0       -0.249325   -0.787165   -0.077728
      5         16           0        1.036410    0.361025   -0.215518
      6          6           0        2.238860   -0.926149   -0.055578
      7          6           0        3.663445   -0.618716   -0.088081
      8          6           0        4.167072    0.639785    0.284618
      9          6           0        5.523215    0.918205    0.260048
     10          6           0        6.453643   -0.056471   -0.145370
     11          7           0        7.828021    0.221147   -0.178165
     12          6           0        8.300703    1.552970   -0.385806
     13          6           0        9.254197    2.109715    0.465769
     14          1           0        9.625209    1.528423    1.301420
     15          6           0        9.745666    3.397532    0.252908
     16          6           0        9.267005    4.157431   -0.817016
     17          6           0        8.304305    3.605310   -1.672687
     18          6           0        7.836741    2.318757   -1.466163
     19          1           0        7.103023    1.897060   -2.142771
     20          1           0        7.950783    4.202556   -2.504337
     21          8           0        9.668305    5.425275   -1.114274
     22          6           0       10.642233    6.039950   -0.282435
     23          1           0       10.285306    6.139026    0.748855
     24          1           0       11.585682    5.482513   -0.288556
     25          1           0       10.808033    7.030888   -0.701547
     26          1           0       10.488787    3.794368    0.931210
     27          6           0        8.790537   -0.816003    0.014590
     28          6           0        8.706892   -1.681719    1.105345
     29          6           0        9.647255   -2.694117    1.294967
     30          6           0       10.707870   -2.836370    0.396541
     31          6           0       10.805065   -1.960304   -0.692355
     32          6           0        9.855745   -0.970857   -0.884487
     33          1           0        9.935782   -0.303465   -1.734163
     34          1           0       11.631034   -2.085101   -1.381938
     35          8           0       11.686719   -3.780380    0.489179
     36          6           0       11.645727   -4.694126    1.575939
     37          1           0       11.722954   -4.177359    2.539191
     38          1           0       10.731032   -5.297522    1.559834
     39          1           0       12.508032   -5.346312    1.448547
     40          1           0        9.548391   -3.348753    2.150306
     41          1           0        7.894861   -1.569078    1.813892
     42          6           0        5.957184   -1.318867   -0.523743
     43          6           0        4.600126   -1.587169   -0.494737
     44          1           0        4.253834   -2.557328   -0.831925
     45          1           0        6.645870   -2.082701   -0.860973
     46          1           0        5.873589    1.893646    0.571326
     47          1           0        3.486389    1.408137    0.634689
     48          6           0        1.625489   -2.161053    0.078410
     49          6           0        0.219718   -2.083396    0.064821
     50          1           0        2.191968   -3.072577    0.214700
     51         16           0       -2.977646    0.322058   -0.184968
     52          6           0       -4.162184   -0.988087   -0.012416
     53          6           0       -3.516210   -2.217730    0.113955
     54          1           0       -4.064580   -3.142153    0.244654
     55          6           0       -5.567054   -0.737299   -0.045138
     56         16           0       -6.680862   -2.036515   -0.376555
     57          6           0       -8.117241   -1.007346   -0.249715
     58          6           0       -7.699721    0.298072    0.013178
     59          6           0       -6.283611    0.455188    0.144695
     60          6           0       -5.918293    1.776862    0.543528
     61          6           0       -7.002029    2.580666    0.716207
     62         16           0       -8.542754    1.781825    0.380001
     63          6           0       -6.929485    3.995445    1.127359
     64          8           0       -5.900200    4.586493    1.352715
     65          8           0       -8.156994    4.542399    1.221469
     66          6           0       -8.202058    5.929065    1.604344
     67          1           0       -7.756993    6.064628    2.591080
     68          1           0       -7.661788    6.539691    0.879736
     69          1           0       -9.257040    6.190991    1.617581
     70          1           0       -4.914608    2.135918    0.716605
     71          6           0       -9.376140   -1.653440   -0.354095
     72          6           0      -10.622163   -1.158916   -0.653764
     73          6           0      -10.831709    0.144243   -1.177590
     74          7           0      -10.995247    1.193976   -1.635252
     75          6           0      -11.834467   -2.036742   -0.645164
     76          8           0      -11.763023   -3.147544    0.146859
     77          1           0      -11.061204   -3.044195    0.799445
     78          8           0      -12.816952   -1.818928   -1.296115
     79          1           0       -9.331350   -2.730405   -0.206037
     80          6           0       -0.917271   -3.800420    1.548251
     81          1           0       -0.924169   -3.086302    2.374015
     82          1           0       -1.789433   -4.452223    1.648799
     83          1           0       -0.021019   -4.420217    1.637464
     84          6           0       -0.930182   -4.093261   -0.972236
     85          1           0       -0.947217   -3.587426   -1.939546
     86          1           0       -0.033600   -4.717316   -0.926403
     87          1           0       -1.802170   -4.750158   -0.911574
 ---------------------------------------------------------------------

 SCF Done:  E(RM062X) =  -3811.04772542     A.U. after   17 cycles

 Excitation energies and oscillator strengths:

 Excited State   1:      Singlet-A      2.2880 eV  541.89 nm  f=1.8286  <S**2>=0.000
     207 -> 209       -0.30530
     208 -> 209        0.61620
 This state for optimization and/or second-order correction.
 Total Energy, E(TD-HF/TD-DFT) =  -3810.96364297
 Copying the excited state density for this state as the 1-particle RhoCI density.

 Excited State   2:      Singlet-A      3.1076 eV  398.97 nm  f=0.0081  <S**2>=0.000
     206 -> 209        0.26322
     207 -> 209        0.57317
     208 -> 209        0.26031
     208 -> 210       -0.10997
     208 -> 211        0.10351

 Excited State   3:      Singlet-A      3.4368 eV  360.76 nm  f=0.0802  <S**2>=0.000
     206 -> 210       -0.11409
     206 -> 211       -0.10154
     207 -> 210       -0.36314
     208 -> 209        0.13629
     208 -> 210        0.52972
     208 -> 211       -0.13373

 Excited State   4:      Singlet-A      3.7026 eV  334.86 nm  f=0.3837  <S**2>=0.000
     204 -> 209       -0.15466
     206 -> 209       -0.32587
     207 -> 210       -0.18903
     208 -> 211        0.51384
     208 -> 213       -0.10446

 Excited State   5:      Singlet-A      3.7155 eV  333.69 nm  f=0.1181  <S**2>=0.000
     203 -> 209        0.11464
     204 -> 209        0.20342
     206 -> 209        0.47369
     206 -> 210       -0.12794
     207 -> 209       -0.20455
     207 -> 210       -0.11701
     207 -> 211       -0.13529
     208 -> 209       -0.13461
     208 -> 211        0.28852

 Excited State   6:      Singlet-A      4.0471 eV  306.35 nm  f=0.0269  <S**2>=0.000
     207 -> 212        0.30314
     208 -> 212        0.59748

 Excited State   7:      Singlet-A      4.1387 eV  299.57 nm  f=0.1380  <S**2>=0.000
     202 -> 209       -0.32481
     203 -> 209        0.56695
     206 -> 209       -0.10534
     208 -> 210       -0.12040

 Excited State   8:      Singlet-A      4.2499 eV  291.73 nm  f=0.0638  <S**2>=0.000
     207 -> 210       -0.33821
     207 -> 211        0.41625
     208 -> 210       -0.20367
     208 -> 211       -0.11769
     208 -> 213       -0.27960
     208 -> 214        0.10307

 Excited State   9:      Singlet-A      4.4186 eV  280.60 nm  f=0.0444  <S**2>=0.000
     198 -> 209        0.18107
     204 -> 209        0.12013
     206 -> 210        0.25659
     207 -> 210        0.22289
     207 -> 211        0.21852
     207 -> 213       -0.11755
     208 -> 210        0.29082
     208 -> 211        0.15563
     208 -> 213       -0.16506
     208 -> 214        0.25937

 Excited State  10:      Singlet-A      4.4383 eV  279.35 nm  f=0.0431  <S**2>=0.000
     197 -> 209        0.14067
     198 -> 209        0.23043
     202 -> 209        0.15976
     206 -> 214       -0.12115
     207 -> 210       -0.17327
     207 -> 213       -0.18903
     207 -> 214       -0.26278
     208 -> 210       -0.16060
     208 -> 213        0.29196
     208 -> 214        0.21763

 The electronic state is 1-A.
 Alpha  occ. eigenvalues --  -89.95754 -89.95334 -89.94270 -89.94101 -19.67734
 Alpha  occ. eigenvalues --  -19.66864 -19.65883 -19.65741 -19.62059 -19.61162
 Alpha  occ. eigenvalues --  -14.78480 -14.74925 -10.69066 -10.68671 -10.63059
 Alpha  occ. eigenvalues --  -10.61416 -10.61407 -10.61294 -10.61267 -10.61196
 Alpha  occ. eigenvalues --  -10.61040 -10.60669 -10.60227 -10.60153 -10.60066
 Alpha  occ. eigenvalues --  -10.60030 -10.59981 -10.59884 -10.59846 -10.59298
 Alpha  occ. eigenvalues --  -10.59057 -10.58958 -10.58867 -10.58689 -10.57922
 Alpha  occ. eigenvalues --  -10.57856 -10.57654 -10.56923 -10.56659 -10.56610
 Alpha  occ. eigenvalues --  -10.56086 -10.55772 -10.55721 -10.55632 -10.55470
 Alpha  occ. eigenvalues --  -10.55450 -10.55435 -10.55416 -10.55268 -10.55018
 Alpha  occ. eigenvalues --  -10.54978 -10.54970 -10.54959 -10.54943 -10.54893
 Alpha  occ. eigenvalues --   -8.32264  -8.31807  -8.30723  -8.30587  -6.24342
 Alpha  occ. eigenvalues --   -6.24115  -6.23880  -6.23866  -6.23675  -6.23414
 Alpha  occ. eigenvalues --   -6.22797  -6.22663  -6.22576  -6.22455  -6.22276
 Alpha  occ. eigenvalues --   -6.22199  -1.24445  -1.23284  -1.19879  -1.19742
 Alpha  occ. eigenvalues --   -1.15187  -1.14834  -1.08590  -1.04559  -1.03628
 Alpha  occ. eigenvalues --   -1.01634  -0.99909  -0.97771  -0.97303  -0.97242
 Alpha  occ. eigenvalues --   -0.95692  -0.94715  -0.93482  -0.89953  -0.88545
 Alpha  occ. eigenvalues --   -0.87294  -0.87067  -0.86569  -0.85961  -0.85864
 Alpha  occ. eigenvalues --   -0.85508  -0.84793  -0.84058  -0.83587  -0.83089
 Alpha  occ. eigenvalues --   -0.82016  -0.80321  -0.80076  -0.79882  -0.78330
 Alpha  occ. eigenvalues --   -0.75678  -0.73539  -0.72345  -0.72181  -0.71568
 Alpha  occ. eigenvalues --   -0.71451  -0.70824  -0.70539  -0.69120  -0.68751
 Alpha  occ. eigenvalues --   -0.66858  -0.66160  -0.65055  -0.64836  -0.63909
 Alpha  occ. eigenvalues --   -0.63716  -0.62968  -0.62849  -0.62637  -0.61538
 Alpha  occ. eigenvalues --   -0.60803  -0.59802  -0.58997  -0.57913  -0.57673
 Alpha  occ. eigenvalues --   -0.57657  -0.57243  -0.56628  -0.56074  -0.55812
 Alpha  occ. eigenvalues --   -0.55655  -0.55195  -0.55007  -0.54236  -0.53911
 Alpha  occ. eigenvalues --   -0.53441  -0.53088  -0.52998  -0.52788  -0.52338
 Alpha  occ. eigenvalues --   -0.51943  -0.51741  -0.51334  -0.50739  -0.50551
 Alpha  occ. eigenvalues --   -0.50397  -0.50191  -0.50104  -0.49841  -0.49234
 Alpha  occ. eigenvalues --   -0.49017  -0.48640  -0.48425  -0.48136  -0.47903
 Alpha  occ. eigenvalues --   -0.47755  -0.47512  -0.46995  -0.46513  -0.46202
 Alpha  occ. eigenvalues --   -0.46129  -0.45988  -0.45699  -0.45505  -0.45136
 Alpha  occ. eigenvalues --   -0.44792  -0.44434  -0.44104  -0.43887  -0.43770
 Alpha  occ. eigenvalues --   -0.43453  -0.43230  -0.42794  -0.42549  -0.42076
 Alpha  occ. eigenvalues --   -0.41653  -0.41365  -0.41003  -0.40598  -0.40541
 Alpha  occ. eigenvalues --   -0.40196  -0.40065  -0.40003  -0.39784  -0.39503
 Alpha  occ. eigenvalues --   -0.39329  -0.38582  -0.37534  -0.36887  -0.36166
 Alpha  occ. eigenvalues --   -0.34755  -0.33482  -0.32996  -0.32723  -0.32052
 Alpha  occ. eigenvalues --   -0.32000  -0.31741  -0.31632  -0.30855  -0.29356
 Alpha  occ. eigenvalues --   -0.27977  -0.24695  -0.22460
 Alpha virt. eigenvalues --   -0.09386  -0.04954  -0.03173  -0.00330   0.00290
 Alpha virt. eigenvalues --    0.01034   0.01614   0.01908   0.02079   0.02271
 Alpha virt. eigenvalues --    0.02912   0.04213   0.04359   0.05299   0.05421

 Mulliken charges:
               1
     1  C   -0.320769
     2  C   -0.007549
     3  C   -0.196157
     4  C   -0.208538
     5  S    0.347346
     6  C   -0.317333
     7  C   -0.009812
     8  C   -0.112157
     9  C   -0.142477
    10  C    0.180468
    11  N   -0.545596
    12  C    0.033340
    13  C   -0.075822
    14  H    0.141033
    15  C   -0.159782
    16  C    0.174246
    17  C   -0.113884
    18  C   -0.083014
    19  H    0.148920
    20  H    0.143305
    21  O   -0.376116
    22  C   -0.209237
    23  H    0.138383
    24  H    0.138249
    25  H    0.156971
    26  H    0.144629
    27  C    0.032285
    28  C   -0.080308
    29  C   -0.157441
    30  C    0.174136
    31  C   -0.117614
    32  C   -0.078434
    33  H    0.143223
    34  H    0.142380
    35  O   -0.376295
    36  C   -0.208895
    37  H    0.138159
    38  H    0.137339
    39  H    0.156955
    40  H    0.144577
    41  H    0.146458
    42  C   -0.138350
    43  C   -0.067007
    44  H    0.131641
    45  H    0.152932
    46  H    0.154630
    47  H    0.144173
    48  C   -0.004880
    49  C    0.006466
    50  H    0.137712
    51  S    0.395370
    52  C   -0.271783
    53  C   -0.020757
    54  H    0.147993
    55  C   -0.180913
    56  S    0.377931
    57  C   -0.369192
    58  C   -0.074403
    59  C   -0.056581
    60  C    0.053200
    61  C   -0.416372
    62  S    0.430449
    63  C    0.517721
    64  O   -0.370639
    65  O   -0.366722
    66  C   -0.174896
    67  H    0.150373
    68  H    0.152425
    69  H    0.153575
    70  H    0.178943
    71  C    0.001371
    72  C   -0.196868
    73  C    0.086626
    74  N   -0.249301
    75  C    0.491228
    76  O   -0.344176
    77  H    0.261845
    78  O   -0.319016
    79  H    0.140027
    80  C   -0.301868
    81  H    0.157083
    82  H    0.143265
    83  H    0.145600
    84  C   -0.300393
    85  H    0.158046
    86  H    0.144896
    87  H    0.143426
 Sum of Mulliken charges =  -0.00000

 Dipole moment (field-independent basis, Debye):
    X=             14.9131    Y=             -3.0493    Z=              5.9525  Tot=             16.3442
 Quadrupole moment (field-independent basis, Debye-Ang):
   XX=           -443.4204   YY=           -300.1447   ZZ=           -350.1104
   XY=             -1.5907   XZ=            -24.9475   YZ=             -2.6020

 Normal termination of Gaussian 16 at Fri Jun 11 15:51:09 2021.
