 Gaussian 16, Revision C.01,
 Gaussian 16:  ES64L-G16RevC.01  3-Jul-2019

 ---------------------------------------
 #N TD(NStates=10) BHandHLYP/6-311G(d,p)
 ---------------------------------------

 ----
 Name
 ----
 Symbolic Z-matrix:
 Charge =  0 Multiplicity = 1

                         Standard orientation:
 ---------------------------------------------------------------------
 Center     Atomic      Atomic             Coordinates (Angstroms)
 Number     Number       Type             X           Y           Z
 ---------------------------------------------------------------------
      1          6           0        7.854865    6.024058    0.403487
      2          8           0        6.930098    5.445576   -0.507285
      3          6           0        6.551439    4.151509   -0.314600
      4          6           0        7.013084    3.328698    0.716028
      5          6           0        6.548922    2.017843    0.819648
      6          6           0        5.639310    1.501770   -0.102244
      7          7           0        5.195402    0.146676   -0.004616
      8          6           0        3.831426   -0.166409   -0.016121
      9          6           0        3.376849   -1.423317   -0.463194
     10          6           0        2.028745   -1.730473   -0.469197
     11          6           0        1.058040   -0.808007   -0.035304
     12          6           0        1.519446    0.446258    0.403126
     13          6           0        2.865936    0.763307    0.416735
     14          1           0        3.182701    1.731893    0.780526
     15          1           0        0.810972    1.178648    0.774162
     16          6           0       -0.355386   -1.156756   -0.040233
     17         16           0       -1.598290    0.071945   -0.059677
     18          6           0       -2.889919   -1.128032   -0.041858
     19          6           0       -2.339225   -2.399356   -0.041965
     20          6           0       -0.933701   -2.413395   -0.039446
     21          1           0       -0.351646   -3.324188   -0.004324
     22          1           0       -2.952581   -3.286838   -0.029235
     23          6           0       -4.274635   -0.725308   -0.027824
     24          6           0       -4.663327    0.611667    0.041976
     25          6           0       -5.998093    1.048696    0.058794
     26          6           0       -7.081872    0.178411    0.008897
     27          6           0       -6.743828   -1.219490   -0.067869
     28          6           0       -5.365060   -1.673476   -0.086099
     29          7           0       -5.257420   -3.000011   -0.162402
     30         16           0       -6.774991   -3.613123   -0.206354
     31          7           0       -7.627557   -2.214635   -0.131885
     32          6           0       -8.479634    0.528438    0.026300
     33          6           0       -9.115721    1.732156    0.098297
     34          6           0       -8.432816    2.976899    0.214181
     35          7           0       -7.859740    3.978005    0.290750
     36          6           0      -10.612934    1.843960    0.167833
     37          8           0      -11.170170    2.794364    0.639908
     38          8           0      -11.326407    0.795559   -0.320491
     39          1           0      -10.764773    0.217454   -0.849414
     40          1           0       -9.119864   -0.348824    0.005237
     41          1           0       -6.169390    2.114206    0.118876
     42          1           0       -3.896732    1.375424    0.092792
     43          1           0        1.717481   -2.694805   -0.853227
     44          1           0        4.091832   -2.151590   -0.822929
     45          6           0        6.182485   -0.880510    0.109488
     46          6           0        7.243138   -0.949132   -0.792860
     47          6           0        8.226109   -1.931155   -0.674294
     48          6           0        8.146178   -2.876241    0.351647
     49          6           0        7.080856   -2.813495    1.259788
     50          6           0        6.119176   -1.823881    1.145719
     51          1           0        5.306643   -1.776838    1.861042
     52          1           0        7.039224   -3.545811    2.056842
     53          8           0        9.042096   -3.882022    0.555863
     54          6           0       10.140418   -4.002717   -0.337475
     55          1           0        9.804647   -4.183713   -1.364656
     56          1           0       10.777211   -3.111220   -0.314833
     57          1           0       10.712574   -4.861240    0.009852
     58          1           0        9.036138   -1.951624   -1.390748
     59          1           0        7.307425   -0.223104   -1.594546
     60          6           0        5.191810    2.330782   -1.141623
     61          6           0        5.633098    3.639345   -1.240941
     62          1           0        5.292087    4.286042   -2.040189
     63          1           0        4.491923    1.941314   -1.871452
     64          1           0        6.906439    1.386992    1.624756
     65          1           0        7.721313    3.693910    1.447422
     66          1           0        8.009898    7.045443    0.060366
     67          1           0        7.455829    6.042205    1.423759
     68          1           0        8.812336    5.491153    0.396740
 ---------------------------------------------------------------------

 SCF Done:  E(RBHandHLYP) =  -2625.63207739     A.U. after   16 cycles

 Excitation energies and oscillator strengths:

 Excited State   1:      Singlet-A      2.2838 eV  542.89 nm  f=1.1400  <S**2>=0.000
     159 ->161         0.27012
     160 ->161         0.64087
 This state for optimization and/or second-order correction.
 Total Energy, E(TD-HF/TD-DFT) =  -2625.54815002
 Copying the excited state density for this state as the 1-particle RhoCI density.

 Excited State   2:      Singlet-A      3.1347 eV  395.52 nm  f=0.0913  <S**2>=0.000
     157 ->161        -0.19643
     159 ->161         0.60997
     160 ->161        -0.27381

 Excited State   3:      Singlet-A      3.6990 eV  335.18 nm  f=0.5884  <S**2>=0.000
     159 ->162         0.29774
     160 ->162         0.49995
     160 ->163         0.35005

 Excited State   4:      Singlet-A      3.9678 eV  312.48 nm  f=0.2377  <S**2>=0.000
     151 ->161         0.13662
     154 ->161        -0.13516
     157 ->161         0.16241
     159 ->162        -0.19907
     159 ->163         0.12037
     160 ->162        -0.28410
     160 ->163         0.50077

 Excited State   5:      Singlet-A      4.0596 eV  305.41 nm  f=0.0299  <S**2>=0.000
     152 ->161        -0.21927
     154 ->161        -0.10810
     155 ->161         0.15911
     157 ->161         0.54545
     159 ->161         0.19689
     160 ->163        -0.20340

 Excited State   6:      Singlet-A      4.2118 eV  294.37 nm  f=0.0222  <S**2>=0.000
     153 ->161         0.17925
     154 ->161         0.53551
     156 ->161        -0.26489
     157 ->161         0.14060
     160 ->164        -0.18811

 Excited State   7:      Singlet-A      4.2478 eV  291.88 nm  f=0.0222  <S**2>=0.000
     153 ->161         0.13230
     154 ->161         0.19461
     159 ->164        -0.13015
     160 ->164         0.60865

 Excited State   8:      Singlet-A      4.4364 eV  279.47 nm  f=0.1066  <S**2>=0.000
     151 ->161         0.59703
     152 ->161         0.17443
     159 ->163         0.12741
     160 ->165        -0.10794

 Excited State   9:      Singlet-A      4.4927 eV  275.97 nm  f=0.0030  <S**2>=0.000
     158 ->161         0.68609

 Excited State  10:      Singlet-A      4.6070 eV  269.12 nm  f=0.0581  <S**2>=0.000
     157 ->162        -0.22248
     159 ->162         0.50123
     159 ->163         0.16800
     160 ->162        -0.37601

 The electronic state is 1-A.
 Alpha  occ. eigenvalues --  -90.15569 -90.08172 -19.72839 -19.71202 -19.71111
 Alpha  occ. eigenvalues --  -19.66610 -14.86099 -14.85770 -14.83481 -14.80539
 Alpha  occ. eigenvalues --  -10.73902 -10.67010 -10.66929 -10.65968 -10.65894
 Alpha  occ. eigenvalues --  -10.65433 -10.65303 -10.65227 -10.64779 -10.64645
 Alpha  occ. eigenvalues --  -10.64548 -10.64544 -10.63864 -10.63494 -10.63326
 Alpha  occ. eigenvalues --  -10.63273 -10.63143 -10.63124 -10.62050 -10.61050
 Alpha  occ. eigenvalues --  -10.60762 -10.60352 -10.60319 -10.60021 -10.60005
 Alpha  occ. eigenvalues --  -10.59983 -10.59961 -10.59919 -10.59752 -10.59678
 Alpha  occ. eigenvalues --  -10.59391 -10.59387 -10.59358 -10.59305  -8.43914
 Alpha  occ. eigenvalues --   -8.36952  -6.29739  -6.29322  -6.29123  -6.22723
 Alpha  occ. eigenvalues --   -6.22456  -6.22167  -1.25352  -1.21357  -1.21271
 Alpha  occ. eigenvalues --   -1.17584  -1.16828  -1.10412  -1.04624  -1.04287
 Alpha  occ. eigenvalues --   -1.02783  -1.00857  -0.98977  -0.98873  -0.96977
 Alpha  occ. eigenvalues --   -0.96099  -0.91480  -0.89667  -0.89128  -0.88426
 Alpha  occ. eigenvalues --   -0.87573  -0.87444  -0.87066  -0.85629  -0.85123
 Alpha  occ. eigenvalues --   -0.83316  -0.81154  -0.80213  -0.78623  -0.75955
 Alpha  occ. eigenvalues --   -0.73778  -0.73319  -0.72917  -0.72158  -0.71900
 Alpha  occ. eigenvalues --   -0.71633  -0.70431  -0.69556  -0.67551  -0.66878
 Alpha  occ. eigenvalues --   -0.65536  -0.64690  -0.63209  -0.63071  -0.61872
 Alpha  occ. eigenvalues --   -0.61470  -0.60545  -0.60123  -0.59553  -0.58425
 Alpha  occ. eigenvalues --   -0.58163  -0.56880  -0.55678  -0.55582  -0.55016
 Alpha  occ. eigenvalues --   -0.54784  -0.54467  -0.54004  -0.53573  -0.53525
 Alpha  occ. eigenvalues --   -0.53306  -0.53195  -0.52182  -0.51127  -0.51083
 Alpha  occ. eigenvalues --   -0.50738  -0.50724  -0.50396  -0.49512  -0.49234
 Alpha  occ. eigenvalues --   -0.48900  -0.48331  -0.47647  -0.47295  -0.46923
 Alpha  occ. eigenvalues --   -0.46767  -0.46216  -0.46004  -0.45763  -0.45588
 Alpha  occ. eigenvalues --   -0.45201  -0.44967  -0.44857  -0.44476  -0.43874
 Alpha  occ. eigenvalues --   -0.43182  -0.42841  -0.41978  -0.41348  -0.40879
 Alpha  occ. eigenvalues --   -0.40616  -0.40314  -0.40195  -0.40059  -0.39633
 Alpha  occ. eigenvalues --   -0.39503  -0.39086  -0.37180  -0.36154  -0.35863
 Alpha  occ. eigenvalues --   -0.32993  -0.32597  -0.31686  -0.31297  -0.30931
 Alpha  occ. eigenvalues --   -0.30658  -0.29129  -0.28559  -0.25531  -0.22155
 Alpha virt. eigenvalues --   -0.09778  -0.04219  -0.02194   0.00623   0.02489
 Alpha virt. eigenvalues --    0.02659   0.02961   0.03098   0.03224   0.03895
 Alpha virt. eigenvalues --    0.05635   0.05759   0.06318   0.06772   0.06987

 Mulliken charges:
               1
     1  C   -0.111524
     2  O   -0.399496
     3  C    0.201080
     4  C   -0.135572
     5  C   -0.070684
     6  C    0.071509
     7  N   -0.563671
     8  C    0.226706
     9  C   -0.124048
    10  C   -0.049635
    11  C   -0.012750
    12  C   -0.100360
    13  C   -0.125572
    14  H    0.128552
    15  H    0.111579
    16  C   -0.256613
    17  S    0.328930
    18  C   -0.295859
    19  C    0.001581
    20  C   -0.052939
    21  H    0.107980
    22  H    0.140733
    23  C    0.123961
    24  C   -0.128189
    25  C   -0.031224
    26  C   -0.093907
    27  C    0.161769
    28  C    0.159777
    29  N   -0.544386
    30  S    0.592952
    31  N   -0.538939
    32  C    0.053881
    33  C   -0.179320
    34  C    0.094225
    35  N   -0.270334
    36  C    0.509631
    37  O   -0.334089
    38  O   -0.337379
    39  H    0.254602
    40  H    0.129354
    41  H    0.146605
    42  H    0.117717
    43  H    0.101714
    44  H    0.127443
    45  C    0.071059
    46  C   -0.070129
    47  C   -0.135666
    48  C    0.200827
    49  C   -0.091300
    50  C   -0.066240
    51  H    0.115346
    52  H    0.116124
    53  O   -0.399909
    54  C   -0.111473
    55  H    0.110211
    56  H    0.109717
    57  H    0.131952
    58  H    0.115496
    59  H    0.112854
    60  C   -0.066331
    61  C   -0.090835
    62  H    0.116783
    63  H    0.115449
    64  H    0.112489
    65  H    0.115472
    66  H    0.132313
    67  H    0.110709
    68  H    0.109289
 Sum of Mulliken charges =  -0.00000

 Dipole moment (field-independent basis, Debye):
    X=             12.9610    Y=             -5.8409    Z=             -1.6393  Tot=             14.3106
 Quadrupole moment (field-independent basis, Debye-Ang):
   XX=           -301.7810   YY=           -268.4725   ZZ=           -266.7540
   XY=             65.2444   XZ=             16.6131   YZ=              5.7194

 Normal termination of Gaussian 16 at Tue Jul 27 15:18:18 2021.
