 Gaussian 16, Revision B.01,
 Gaussian 16:  ES64L-G16RevB.01 20-Dec-2017

 ---------------------------------------
 #N TD(NStates=10) CAM-B3lYP/6-311G(d,p)
 ---------------------------------------

 ----
 Name
 ----
 Symbolic Z-matrix:
 Charge =  0 Multiplicity = 1

                         Standard orientation:
 ---------------------------------------------------------------------
 Center     Atomic      Atomic             Coordinates (Angstroms)
 Number     Number       Type             X           Y           Z
 ---------------------------------------------------------------------
      1          6           0        7.854865    6.024058    0.403487
      2          8           0        6.930098    5.445576   -0.507285
      3          6           0        6.551439    4.151509   -0.314600
      4          6           0        7.013084    3.328698    0.716028
      5          6           0        6.548922    2.017843    0.819648
      6          6           0        5.639310    1.501770   -0.102244
      7          7           0        5.195402    0.146676   -0.004616
      8          6           0        3.831426   -0.166409   -0.016121
      9          6           0        3.376849   -1.423317   -0.463194
     10          6           0        2.028745   -1.730473   -0.469197
     11          6           0        1.058040   -0.808007   -0.035304
     12          6           0        1.519446    0.446258    0.403126
     13          6           0        2.865936    0.763307    0.416735
     14          1           0        3.182701    1.731893    0.780526
     15          1           0        0.810972    1.178648    0.774162
     16          6           0       -0.355386   -1.156756   -0.040233
     17         16           0       -1.598290    0.071945   -0.059677
     18          6           0       -2.889919   -1.128032   -0.041858
     19          6           0       -2.339225   -2.399356   -0.041965
     20          6           0       -0.933701   -2.413395   -0.039446
     21          1           0       -0.351646   -3.324188   -0.004324
     22          1           0       -2.952581   -3.286838   -0.029235
     23          6           0       -4.274635   -0.725308   -0.027824
     24          6           0       -4.663327    0.611667    0.041976
     25          6           0       -5.998093    1.048696    0.058794
     26          6           0       -7.081872    0.178411    0.008897
     27          6           0       -6.743828   -1.219490   -0.067869
     28          6           0       -5.365060   -1.673476   -0.086099
     29          7           0       -5.257420   -3.000011   -0.162402
     30         16           0       -6.774991   -3.613123   -0.206354
     31          7           0       -7.627557   -2.214635   -0.131885
     32          6           0       -8.479634    0.528438    0.026300
     33          6           0       -9.115721    1.732156    0.098297
     34          6           0       -8.432816    2.976899    0.214181
     35          7           0       -7.859740    3.978005    0.290750
     36          6           0      -10.612934    1.843960    0.167833
     37          8           0      -11.170170    2.794364    0.639908
     38          8           0      -11.326407    0.795559   -0.320491
     39          1           0      -10.764773    0.217454   -0.849414
     40          1           0       -9.119864   -0.348824    0.005237
     41          1           0       -6.169390    2.114206    0.118876
     42          1           0       -3.896732    1.375424    0.092792
     43          1           0        1.717481   -2.694805   -0.853227
     44          1           0        4.091832   -2.151590   -0.822929
     45          6           0        6.182485   -0.880510    0.109488
     46          6           0        7.243138   -0.949132   -0.792860
     47          6           0        8.226109   -1.931155   -0.674294
     48          6           0        8.146178   -2.876241    0.351647
     49          6           0        7.080856   -2.813495    1.259788
     50          6           0        6.119176   -1.823881    1.145719
     51          1           0        5.306643   -1.776838    1.861042
     52          1           0        7.039224   -3.545811    2.056842
     53          8           0        9.042096   -3.882022    0.555863
     54          6           0       10.140418   -4.002717   -0.337475
     55          1           0        9.804647   -4.183713   -1.364656
     56          1           0       10.777211   -3.111220   -0.314833
     57          1           0       10.712574   -4.861240    0.009852
     58          1           0        9.036138   -1.951624   -1.390748
     59          1           0        7.307425   -0.223104   -1.594546
     60          6           0        5.191810    2.330782   -1.141623
     61          6           0        5.633098    3.639345   -1.240941
     62          1           0        5.292087    4.286042   -2.040189
     63          1           0        4.491923    1.941314   -1.871452
     64          1           0        6.906439    1.386992    1.624756
     65          1           0        7.721313    3.693910    1.447422
     66          1           0        8.009898    7.045443    0.060366
     67          1           0        7.455829    6.042205    1.423759
     68          1           0        8.812336    5.491153    0.396740
 ---------------------------------------------------------------------

 SCF Done:  E(RCAM-B3LYP) =  -2625.83302949     A.U. after   17 cycles

 Excitation energies and oscillator strengths:

 Excited State   1:      Singlet-A      2.3354 eV  530.89 nm  f=1.1568  <S**2>=0.000
     159 ->161         0.33572
     160 ->161         0.60233
     160 ->163         0.10874
 This state for optimization and/or second-order correction.
 Total Energy, E(TD-HF/TD-DFT) =  -2625.74720508
 Copying the excited state density for this state as the 1-particle RhoCI density.

 Excited State   2:      Singlet-A      3.2305 eV  383.79 nm  f=0.0620  <S**2>=0.000
     157 ->161         0.24062
     159 ->161         0.55698
     160 ->161        -0.32598

 Excited State   3:      Singlet-A      3.7335 eV  332.09 nm  f=0.6255  <S**2>=0.000
     157 ->162         0.10344
     159 ->162         0.32187
     159 ->163         0.11331
     160 ->162         0.42121
     160 ->163         0.39264

 Excited State   4:      Singlet-A      3.9579 eV  313.26 nm  f=0.2161  <S**2>=0.000
     151 ->161         0.15750
     154 ->161        -0.15032
     157 ->161        -0.14124
     157 ->162        -0.10464
     159 ->162        -0.25916
     159 ->163         0.12255
     160 ->161        -0.10836
     160 ->162        -0.27529
     160 ->163         0.44290

 Excited State   5:      Singlet-A      4.1134 eV  301.42 nm  f=0.0167  <S**2>=0.000
     152 ->161        -0.10185
     154 ->161        -0.20065
     156 ->161        -0.18906
     157 ->161        -0.19685
     159 ->164        -0.10805
     160 ->163        -0.14186
     160 ->164         0.50974

 Excited State   6:      Singlet-A      4.1161 eV  301.22 nm  f=0.0209  <S**2>=0.000
     152 ->161         0.16195
     154 ->161         0.26967
     155 ->161        -0.14414
     156 ->161         0.11725
     157 ->161         0.30645
     159 ->161        -0.14921
     160 ->163         0.16047
     160 ->164         0.38895

 Excited State   7:      Singlet-A      4.1995 eV  295.23 nm  f=0.0473  <S**2>=0.000
     152 ->161        -0.25533
     154 ->161         0.44912
     156 ->161         0.22504
     157 ->161        -0.33800
     159 ->161         0.12444

 Excited State   8:      Singlet-A      4.3643 eV  284.09 nm  f=0.0750  <S**2>=0.000
     151 ->161         0.60704
     152 ->161         0.11116
     157 ->161         0.10742
     159 ->163         0.11121
     160 ->165        -0.11817

 Excited State   9:      Singlet-A      4.5559 eV  272.14 nm  f=0.0009  <S**2>=0.000
     150 ->161         0.55439
     150 ->162         0.32039
     150 ->163        -0.14386
     150 ->174         0.15682

 Excited State  10:      Singlet-A      4.5924 eV  269.98 nm  f=0.0610  <S**2>=0.000
     153 ->161        -0.11423
     156 ->161        -0.12772
     157 ->164        -0.11190
     159 ->164         0.15144
     159 ->166        -0.13662
     160 ->166         0.48690
     160 ->169        -0.30006

 The electronic state is 1-A.
 Alpha  occ. eigenvalues --  -89.02973 -88.95645 -19.24454 -19.22935 -19.22850
 Alpha  occ. eigenvalues --  -19.18352 -14.44502 -14.44266 -14.42165 -14.39150
 Alpha  occ. eigenvalues --  -10.39388 -10.32769 -10.32693 -10.31780 -10.31710
 Alpha  occ. eigenvalues --  -10.31293 -10.31137 -10.31086 -10.30680 -10.30584
 Alpha  occ. eigenvalues --  -10.30466 -10.30223 -10.29683 -10.29473 -10.29184
 Alpha  occ. eigenvalues --  -10.29147 -10.29134 -10.28905 -10.27956 -10.26893
 Alpha  occ. eigenvalues --  -10.26484 -10.26144 -10.26119 -10.25935 -10.25903
 Alpha  occ. eigenvalues --  -10.25879 -10.25849 -10.25843 -10.25725 -10.25655
 Alpha  occ. eigenvalues --  -10.25368 -10.25291 -10.25286 -10.25255  -8.11481
 Alpha  occ. eigenvalues --   -8.04574  -6.07997  -6.07397  -6.07160  -6.00976
 Alpha  occ. eigenvalues --   -6.00582  -6.00217  -1.19522  -1.15805  -1.15724
 Alpha  occ. eigenvalues --   -1.13231  -1.11325  -1.05952  -1.00517  -1.00121
 Alpha  occ. eigenvalues --   -0.99162  -0.97323  -0.95392  -0.95305  -0.93535
 Alpha  occ. eigenvalues --   -0.92808  -0.88478  -0.87091  -0.86244  -0.85645
 Alpha  occ. eigenvalues --   -0.84683  -0.84573  -0.84159  -0.83049  -0.82693
 Alpha  occ. eigenvalues --   -0.80949  -0.78964  -0.78044  -0.76321  -0.74321
 Alpha  occ. eigenvalues --   -0.72175  -0.71607  -0.71303  -0.70769  -0.70218
 Alpha  occ. eigenvalues --   -0.69955  -0.68852  -0.67979  -0.66272  -0.65750
 Alpha  occ. eigenvalues --   -0.64407  -0.63622  -0.62553  -0.62475  -0.61207
 Alpha  occ. eigenvalues --   -0.60671  -0.59778  -0.59383  -0.58824  -0.57718
 Alpha  occ. eigenvalues --   -0.57507  -0.56203  -0.55357  -0.55200  -0.55110
 Alpha  occ. eigenvalues --   -0.54414  -0.53892  -0.53686  -0.53054  -0.52954
 Alpha  occ. eigenvalues --   -0.52784  -0.52157  -0.51643  -0.50785  -0.50634
 Alpha  occ. eigenvalues --   -0.50383  -0.50348  -0.49979  -0.49185  -0.49063
 Alpha  occ. eigenvalues --   -0.48619  -0.48103  -0.47526  -0.47165  -0.46891
 Alpha  occ. eigenvalues --   -0.46796  -0.46579  -0.46244  -0.46149  -0.46061
 Alpha  occ. eigenvalues --   -0.45395  -0.44771  -0.44524  -0.44012  -0.43869
 Alpha  occ. eigenvalues --   -0.43574  -0.42897  -0.42673  -0.41322  -0.40933
 Alpha  occ. eigenvalues --   -0.40443  -0.40355  -0.40220  -0.40215  -0.40133
 Alpha  occ. eigenvalues --   -0.39493  -0.38767  -0.37938  -0.36937  -0.35529
 Alpha  occ. eigenvalues --   -0.34284  -0.33636  -0.33021  -0.32456  -0.32308
 Alpha  occ. eigenvalues --   -0.31979  -0.30297  -0.29576  -0.26777  -0.23276
 Alpha virt. eigenvalues --   -0.09348  -0.03848  -0.01819   0.01004   0.02710
 Alpha virt. eigenvalues --    0.02849   0.03203   0.03325   0.03477   0.03955
 Alpha virt. eigenvalues --    0.05826   0.06017   0.06534   0.06778   0.07440

 Mulliken charges:
               1
     1  C   -0.148999
     2  O   -0.341852
     3  C    0.159937
     4  C   -0.141436
     5  C   -0.060004
     6  C    0.032597
     7  N   -0.488253
     8  C    0.189916
     9  C   -0.124735
    10  C   -0.042938
    11  C   -0.021308
    12  C   -0.093779
    13  C   -0.125024
    14  H    0.129654
    15  H    0.113950
    16  C   -0.271587
    17  S    0.328895
    18  C   -0.302767
    19  C   -0.000986
    20  C   -0.048474
    21  H    0.109683
    22  H    0.137468
    23  C    0.101932
    24  C   -0.117032
    25  C   -0.034109
    26  C   -0.094985
    27  C    0.111739
    28  C    0.128012
    29  N   -0.479693
    30  S    0.572960
    31  N   -0.475593
    32  C    0.044964
    33  C   -0.193955
    34  C    0.044443
    35  N   -0.195165
    36  C    0.421615
    37  O   -0.277484
    38  O   -0.292460
    39  H    0.248804
    40  H    0.126291
    41  H    0.144771
    42  H    0.120721
    43  H    0.104125
    44  H    0.128546
    45  C    0.032039
    46  C   -0.059455
    47  C   -0.141536
    48  C    0.159693
    49  C   -0.092725
    50  C   -0.057010
    51  H    0.118198
    52  H    0.116741
    53  O   -0.342262
    54  C   -0.148954
    55  H    0.115992
    56  H    0.115437
    57  H    0.136637
    58  H    0.117419
    59  H    0.114773
    60  C   -0.057081
    61  C   -0.092310
    62  H    0.117386
    63  H    0.118293
    64  H    0.114424
    65  H    0.117394
    66  H    0.136991
    67  H    0.116489
    68  H    0.115025
 Sum of Mulliken charges =  -0.00000

 Dipole moment (field-independent basis, Debye):
    X=             12.3273    Y=             -5.5954    Z=             -1.6016  Tot=             13.6322
 Quadrupole moment (field-independent basis, Debye-Ang):
   XX=           -295.4201   YY=           -267.6613   ZZ=           -266.7932
   XY=             63.2571   XZ=             16.2713   YZ=              5.5660

 Normal termination of Gaussian 16 at Fri Jun  4 13:24:29 2021.
