 Gaussian 16, Revision B.01,
 Gaussian 16:  ES64L-G16RevB.01 20-Dec-2017

 ---------------------------------------------------------------------
 #N TD(NStates=10)CAM-B3lYP/6-311G(d,p) SCRF=(Solvent=Dichloromethane)
 ---------------------------------------------------------------------

 ----
 Name
 ----
 Symbolic Z-matrix:
 Charge =  0 Multiplicity = 1

                         Standard orientation:
 ---------------------------------------------------------------------
 Center     Atomic      Atomic             Coordinates (Angstroms)
 Number     Number       Type             X           Y           Z
 ---------------------------------------------------------------------
      1          6           0        7.546561   -1.280310    2.683097
      2          6           0        8.592842   -0.800254    1.678459
      3          6           0        7.982348   -0.250768    0.559527
      4          6           0        6.560027   -0.312166    0.721275
      5         16           0        5.139569    0.126570   -0.154442
      6          6           0        4.110677   -0.497597    1.154165
      7          6           0        4.886064   -1.009111    2.184047
      8          6           0        6.267212   -0.903068    1.938473
      9          1           0        4.434723   -1.436566    3.066072
     10          6           0        2.664740   -0.421969    1.036834
     11          6           0        2.033004    0.180668   -0.038723
     12          6           0        0.630861    0.259925   -0.188264
     13          6           0       -0.271476   -0.248550    0.727084
     14          6           0        0.325305   -0.886039    1.870252
     15          7           0       -0.341718   -1.432283    2.889414
     16         16           0        0.764611   -2.009353    3.945696
     17          7           0        2.137532   -1.584801    3.156203
     18          6           0        1.773595   -0.971653    2.029089
     19          6           0       -1.727905   -0.129793    0.534743
     20          6           0       -2.627700   -1.127090    0.949407
     21          6           0       -3.989468   -1.015240    0.716343
     22          6           0       -4.520458    0.105162    0.056672
     23          6           0       -3.630876    1.111584   -0.353867
     24          6           0       -2.271351    0.992571   -0.114460
     25          1           0       -1.618590    1.799849   -0.426000
     26          1           0       -4.012512    1.990779   -0.857038
     27          7           0       -5.905965    0.218076   -0.183178
     28          6           0       -6.541714    1.490986   -0.162595
     29          6           0       -7.452277    1.849593   -1.164607
     30          6           0       -8.080003    3.087880   -1.142777
     31          6           0       -7.814461    4.022365   -0.129081
     32          6           0       -6.902809    3.649608    0.871239
     33          6           0       -6.281857    2.406948    0.863770
     34          1           0       -5.595470    2.138317    1.657746
     35          1           0       -6.698462    4.333679    1.687379
     36          6           0       -8.431479    5.372355   -0.123591
     37          6           0       -7.655440    6.504999    0.184186
     38          6           0       -8.175336    7.787662    0.179345
     39          6           0       -9.520917    7.991698   -0.146516
     40          6           0      -10.322163    6.890794   -0.449187
     41          6           0       -9.781010    5.603663   -0.436548
     42          8           0      -10.630860    4.567494   -0.772508
     43          6           0      -11.174607    3.854858    0.341958
     44          1           0      -11.768846    4.521873    0.977035
     45          1           0      -11.818644    3.079567   -0.072520
     46          1           0      -10.385781    3.390238    0.941552
     47          1           0      -11.366991    6.989955   -0.708897
     48          8           0       -9.950727    9.284025   -0.144623
     49          6           0      -11.303899    9.547345   -0.489284
     50          1           0      -11.419341   10.628514   -0.434744
     51          1           0      -11.531966    9.209206   -1.506079
     52          1           0      -11.997205    9.073730    0.214791
     53          1           0       -7.557214    8.648199    0.402949
     54          1           0       -6.602998    6.368378    0.405019
     55          1           0       -8.776499    3.344012   -1.929784
     56          1           0       -7.660802    1.152742   -1.967442
     57          6           0       -6.684190   -0.938764   -0.477466
     58          6           0       -7.924033   -1.137885    0.141914
     59          6           0       -8.692136   -2.255911   -0.153082
     60          6           0       -8.251760   -3.224345   -1.068286
     61          6           0       -7.002848   -3.017724   -1.673254
     62          6           0       -6.234035   -1.894297   -1.394612
     63          1           0       -5.276141   -1.759105   -1.882366
     64          1           0       -6.622935   -3.753594   -2.372990
     65          6           0       -9.074355   -4.404066   -1.438322
     66          6           0       -9.741533   -5.204812   -0.488005
     67          6           0      -10.490422   -6.320690   -0.879745
     68          6           0      -10.589114   -6.656541   -2.233187
     69          6           0       -9.938791   -5.878317   -3.191525
     70          6           0       -9.200749   -4.778553   -2.783035
     71          1           0       -8.714408   -4.166883   -3.534234
     72          1           0      -10.032331   -6.144342   -4.236502
     73          8           0      -11.299441   -7.720324   -2.704903
     74          6           0      -11.985477   -8.550716   -1.780708
     75          1           0      -12.745332   -7.991399   -1.222891
     76          1           0      -12.473802   -9.319260   -2.377619
     77          1           0      -11.294191   -9.027627   -1.076442
     78          1           0      -10.986088   -6.922385   -0.134488
     79          8           0       -9.602716   -4.840751    0.820595
     80          6           0      -10.183472   -5.647349    1.833286
     81          1           0      -11.275635   -5.680701    1.748293
     82          1           0       -9.784755   -6.667732    1.813423
     83          1           0       -9.912805   -5.176009    2.776807
     84          1           0       -9.646101   -2.386068    0.339831
     85          1           0       -8.285881   -0.405206    0.853395
     86          1           0       -4.654626   -1.802552    1.047713
     87          1           0       -2.255914   -1.998856    1.468874
     88          1           0        0.252500    0.727024   -1.089395
     89          1           0        2.635999    0.614377   -0.828430
     90         16           0        9.123789    0.305543   -0.605419
     91          6           0       10.469575   -0.212829    0.424075
     92          6           0        9.994005   -0.777274    1.599899
     93          1           0       10.653402   -1.174492    2.359953
     94          6           0       11.846087   -0.026495    0.002967
     95          6           0       12.911052   -0.188287    0.914530
     96          6           0       14.220700   -0.019765    0.513571
     97          6           0       14.553611    0.327482   -0.814183
     98          6           0       13.488229    0.495374   -1.724850
     99          6           0       12.178791    0.320031   -1.325168
    100          1           0       11.391855    0.441040   -2.060468
    101          1           0       13.683793    0.758683   -2.755101
    102          6           0       15.951965    0.484358   -1.128773
    103          6           0       16.598111    0.801101   -2.284978
    104          6           0       15.969472    1.065192   -3.530449
    105          7           0       15.544201    1.294906   -4.583914
    106          6           0       18.103574    0.878389   -2.242749
    107          8           0       18.738018    0.672509   -1.243038
    108          8           0       18.723307    1.195286   -3.399137
    109          1           0       18.087752    1.332222   -4.115879
    110          1           0       16.637229    0.323158   -0.300363
    111          1           0       15.018492   -0.148074    1.237166
    112          1           0       12.704703   -0.430789    1.949174
    113          6           0        7.637268   -2.804247    2.911604
    114          1           0        7.558605   -3.347206    1.967676
    115          1           0        8.589316   -3.066421    3.381452
    116          1           0        6.831512   -3.140233    3.569513
    117          6           0        7.660911   -0.524229    4.024198
    118          1           0        7.602613    0.555306    3.871714
    119          1           0        6.853024   -0.819794    4.698782
    120          1           0        8.611489   -0.752222    4.514437
 ---------------------------------------------------------------------

 SCF Done:  E(RCAM-B3LYP) =  -4216.26791533     A.U. after   16 cycles

 Excitation energies and oscillator strengths:

 Excited State   1:      Singlet-A      2.3470 eV  528.26 nm  f=2.2434  <S**2>=0.000
     264 -> 270       -0.12121
     265 -> 270        0.11239
     267 -> 269       -0.33448
     268 -> 269        0.51696
     268 -> 270        0.25800
 This state for optimization and/or second-order correction.
 Total Energy, E(TD-HF/TD-DFT) =  -4216.18166348
 Copying the excited state density for this state as the 1-particle RhoCI density.

 Excited State   2:      Singlet-A      2.8841 eV  429.89 nm  f=0.2778  <S**2>=0.000
     264 -> 269       -0.15077
     265 -> 269        0.18035
     267 -> 269        0.32433
     267 -> 270       -0.18308
     268 -> 270        0.50525
     268 -> 271        0.12654

 Excited State   3:      Singlet-A      3.2908 eV  376.76 nm  f=0.0721  <S**2>=0.000
     267 -> 269        0.34920
     267 -> 270        0.48759
     268 -> 269        0.28254

 Excited State   4:      Singlet-A      3.7618 eV  329.59 nm  f=0.0654  <S**2>=0.000
     264 -> 269        0.16542
     264 -> 270       -0.14947
     265 -> 269       -0.10420
     265 -> 270        0.15289
     267 -> 269       -0.15646
     267 -> 270        0.17989
     267 -> 271       -0.27032
     268 -> 269       -0.12187
     268 -> 270        0.11307
     268 -> 271        0.42688

 Excited State   5:      Singlet-A      3.8809 eV  319.47 nm  f=0.2335  <S**2>=0.000
     264 -> 269        0.22221
     265 -> 269       -0.17624
     267 -> 270        0.20823
     267 -> 271        0.22283
     268 -> 269       -0.28728
     268 -> 270        0.33393
     268 -> 271       -0.21060
     268 -> 272        0.10309
     268 -> 273       -0.13171

 Excited State   6:      Singlet-A      4.0390 eV  306.97 nm  f=0.9493  <S**2>=0.000
     267 -> 272        0.32327
     267 -> 273        0.19064
     268 -> 272        0.47281
     268 -> 273        0.24367

 Excited State   7:      Singlet-A      4.0610 eV  305.31 nm  f=0.0145  <S**2>=0.000
     258 -> 270       -0.11404
     259 -> 270        0.11541
     264 -> 269       -0.30653
     265 -> 269        0.31734
     265 -> 270        0.20229
     266 -> 269        0.11626
     267 -> 269       -0.24053
     267 -> 270        0.24088
     268 -> 269       -0.21584

 Excited State   8:      Singlet-A      4.1560 eV  298.33 nm  f=0.5639  <S**2>=0.000
     267 -> 270        0.10591
     267 -> 271        0.20973
     267 -> 273        0.16885
     268 -> 270        0.12438
     268 -> 272       -0.23641
     268 -> 273        0.46848

 Excited State   9:      Singlet-A      4.2334 eV  292.87 nm  f=0.0744  <S**2>=0.000
     267 -> 274        0.32136
     268 -> 274        0.54396

 Excited State  10:      Singlet-A      4.3515 eV  284.92 nm  f=0.2501  <S**2>=0.000
     252 -> 269        0.15658
     255 -> 270       -0.16906
     258 -> 269       -0.20853
     259 -> 269        0.27244
     262 -> 269       -0.12656
     264 -> 269        0.12870
     264 -> 270       -0.22590
     265 -> 270        0.22485
     266 -> 270        0.10181
     267 -> 269        0.14117
     267 -> 270       -0.14860
     268 -> 271       -0.16929

 The electronic state is 1-A.
 Alpha  occ. eigenvalues --  -89.01443 -88.96186 -88.95782 -19.25076 -19.22598
 Alpha  occ. eigenvalues --  -19.22588 -19.22520 -19.20945 -19.19237 -14.42923
 Alpha  occ. eigenvalues --  -14.42884 -14.41923 -14.41057 -10.40430 -10.31886
 Alpha  occ. eigenvalues --  -10.31598 -10.31554 -10.31346 -10.31250 -10.31145
 Alpha  occ. eigenvalues --  -10.31046 -10.30853 -10.30784 -10.29852 -10.29652
 Alpha  occ. eigenvalues --  -10.29631 -10.29622 -10.29571 -10.29511 -10.29473
 Alpha  occ. eigenvalues --  -10.29415 -10.29378 -10.29230 -10.29221 -10.28922
 Alpha  occ. eigenvalues --  -10.28862 -10.28362 -10.28190 -10.28004 -10.27376
 Alpha  occ. eigenvalues --  -10.27324 -10.26883 -10.26735 -10.26730 -10.26622
 Alpha  occ. eigenvalues --  -10.26524 -10.26290 -10.26165 -10.26126 -10.25960
 Alpha  occ. eigenvalues --  -10.25946 -10.25768 -10.25765 -10.25526 -10.25490
 Alpha  occ. eigenvalues --  -10.25339 -10.25287 -10.25216 -10.25199 -10.24996
 Alpha  occ. eigenvalues --  -10.24981 -10.24963 -10.24924 -10.24888 -10.24857
 Alpha  occ. eigenvalues --  -10.24828 -10.24826 -10.24795 -10.24771 -10.24757
 Alpha  occ. eigenvalues --  -10.24526 -10.24097 -10.24092 -10.23891  -8.09953
 Alpha  occ. eigenvalues --   -8.05054  -8.04658  -6.06469  -6.05864  -6.05637
 Alpha  occ. eigenvalues --   -6.01458  -6.01070  -6.01069  -6.00699  -6.00680
 Alpha  occ. eigenvalues --   -6.00287  -1.20446  -1.15511  -1.15429  -1.15281
 Alpha  occ. eigenvalues --   -1.13770  -1.12194  -1.11665  -1.05710  -1.02077
 Alpha  occ. eigenvalues --   -1.01252  -0.98902  -0.98195  -0.97128  -0.96103
 Alpha  occ. eigenvalues --   -0.95820  -0.95434  -0.94386  -0.93889  -0.93217
 Alpha  occ. eigenvalues --   -0.92709  -0.91561  -0.88225  -0.87663  -0.87208
 Alpha  occ. eigenvalues --   -0.86195  -0.85586  -0.85478  -0.84932  -0.84251
 Alpha  occ. eigenvalues --   -0.84211  -0.83795  -0.83456  -0.83294  -0.82713
 Alpha  occ. eigenvalues --   -0.82539  -0.82060  -0.81931  -0.80309  -0.79819
 Alpha  occ. eigenvalues --   -0.78983  -0.78253  -0.77455  -0.76603  -0.76386
 Alpha  occ. eigenvalues --   -0.75418  -0.73625  -0.71838  -0.71715  -0.71540
 Alpha  occ. eigenvalues --   -0.70998  -0.70729  -0.70399  -0.69813  -0.69450
 Alpha  occ. eigenvalues --   -0.69218  -0.68418  -0.68171  -0.67792  -0.67493
 Alpha  occ. eigenvalues --   -0.67026  -0.66414  -0.66103  -0.65075  -0.64515
 Alpha  occ. eigenvalues --   -0.62761  -0.62464  -0.62168  -0.61631  -0.61449
 Alpha  occ. eigenvalues --   -0.61323  -0.60818  -0.60670  -0.59192  -0.58553
 Alpha  occ. eigenvalues --   -0.58208  -0.58124  -0.57835  -0.57042  -0.56620
 Alpha  occ. eigenvalues --   -0.56402  -0.55770  -0.55549  -0.55526  -0.54935
 Alpha  occ. eigenvalues --   -0.54822  -0.54605  -0.54536  -0.54240  -0.54089
 Alpha  occ. eigenvalues --   -0.54017  -0.53875  -0.53827  -0.53237  -0.52759
 Alpha  occ. eigenvalues --   -0.52614  -0.52381  -0.52225  -0.52191  -0.52004
 Alpha  occ. eigenvalues --   -0.51602  -0.51425  -0.51278  -0.51237  -0.50677
 Alpha  occ. eigenvalues --   -0.50541  -0.50403  -0.50078  -0.49538  -0.49470
 Alpha  occ. eigenvalues --   -0.49282  -0.49195  -0.49002  -0.48643  -0.48510
 Alpha  occ. eigenvalues --   -0.48341  -0.48061  -0.47918  -0.47663  -0.47178
 Alpha  occ. eigenvalues --   -0.47044  -0.46816  -0.46543  -0.46411  -0.46040
 Alpha  occ. eigenvalues --   -0.45927  -0.45876  -0.45600  -0.45511  -0.45338
 Alpha  occ. eigenvalues --   -0.45116  -0.44998  -0.44852  -0.44655  -0.44525
 Alpha  occ. eigenvalues --   -0.44294  -0.44149  -0.43709  -0.43317  -0.43235
 Alpha  occ. eigenvalues --   -0.42981  -0.42847  -0.42549  -0.42029  -0.41961
 Alpha  occ. eigenvalues --   -0.41809  -0.41677  -0.41329  -0.41296  -0.41059
 Alpha  occ. eigenvalues --   -0.40956  -0.40724  -0.40339  -0.40165  -0.39849
 Alpha  occ. eigenvalues --   -0.39671  -0.39629  -0.39073  -0.39036  -0.38810
 Alpha  occ. eigenvalues --   -0.37910  -0.37373  -0.36877  -0.36676  -0.35495
 Alpha  occ. eigenvalues --   -0.34566  -0.33642  -0.33442  -0.32956  -0.32681
 Alpha  occ. eigenvalues --   -0.32342  -0.32265  -0.31760  -0.31547  -0.31320
 Alpha  occ. eigenvalues --   -0.31206  -0.31003  -0.30203  -0.28943  -0.27509
 Alpha  occ. eigenvalues --   -0.26510  -0.24231  -0.22809
 Alpha virt. eigenvalues --   -0.07684  -0.06135  -0.01979   0.00297   0.00530
 Alpha virt. eigenvalues --    0.01664   0.01834   0.02240   0.03198   0.03371
 Alpha virt. eigenvalues --    0.04023   0.04145   0.04174   0.04443   0.04907

 Mulliken charges:
               1
     1  C   -0.254368
     2  C   -0.008727
     3  C   -0.185974
     4  C   -0.180060
     5  S    0.304658
     6  C   -0.298496
     7  C    0.032637
     8  C   -0.007250
     9  H    0.134600
    10  C    0.070834
    11  C   -0.109106
    12  C   -0.084707
    13  C   -0.005750
    14  C    0.097179
    15  N   -0.477623
    16  S    0.582288
    17  N   -0.502263
    18  C    0.126981
    19  C   -0.057554
    20  C   -0.052225
    21  C   -0.120044
    22  C    0.150083
    23  C   -0.118928
    24  C   -0.081937
    25  H    0.120663
    26  H    0.132339
    27  N   -0.494672
    28  C    0.087905
    29  C   -0.094713
    30  C   -0.059099
    31  C   -0.113039
    32  C   -0.084136
    33  C   -0.087419
    34  H    0.127025
    35  H    0.118828
    36  C   -0.043603
    37  C   -0.073083
    38  C   -0.113567
    39  C    0.168205
    40  C   -0.106432
    41  C    0.098743
    42  O   -0.389135
    43  C   -0.125663
    44  H    0.111714
    45  H    0.128929
    46  H    0.121282
    47  H    0.127618
    48  O   -0.354457
    49  C   -0.156574
    50  H    0.142344
    51  H    0.127559
    52  H    0.126085
    53  H    0.119291
    54  H    0.121480
    55  H    0.119343
    56  H    0.125474
    57  C    0.082233
    58  C   -0.096637
    59  C   -0.051293
    60  C   -0.049176
    61  C   -0.084841
    62  C   -0.088993
    63  H    0.125150
    64  H    0.118681
    65  C   -0.114878
    66  C    0.189729
    67  C   -0.193601
    68  C    0.162968
    69  C   -0.121908
    70  C   -0.076688
    71  H    0.116959
    72  H    0.114976
    73  O   -0.355867
    74  C   -0.158132
    75  H    0.125494
    76  H    0.142652
    77  H    0.125546
    78  H    0.151588
    79  O   -0.361543
    80  C   -0.156548
    81  H    0.125433
    82  H    0.126246
    83  H    0.143159
    84  H    0.113414
    85  H    0.123277
    86  H    0.131943
    87  H    0.121997
    88  H    0.125510
    89  H    0.129013
    90  S    0.319890
    91  C   -0.314762
    92  C    0.029524
    93  H    0.127935
    94  C    0.015477
    95  C   -0.052684
    96  C   -0.061780
    97  C   -0.125962
    98  C   -0.050118
    99  C   -0.105833
   100  H    0.132107
   101  H    0.136380
   102  C    0.078983
   103  C   -0.229086
   104  C    0.001996
   105  N   -0.233265
   106  C    0.458651
   107  O   -0.339467
   108  O   -0.312259
   109  H    0.277485
   110  H    0.146274
   111  H    0.129093
   112  H    0.126385
   113  C   -0.231359
   114  H    0.123346
   115  H    0.122034
   116  H    0.123931
   117  C   -0.231094
   118  H    0.123221
   119  H    0.123905
   120  H    0.121704
 Sum of Mulliken charges =  -0.00000

 Dipole moment (field-independent basis, Debye):
    X=            -11.9632    Y=             -3.8056    Z=              7.2884  Tot=             14.5162
 Quadrupole moment (field-independent basis, Debye-Ang):
   XX=           -539.9504   YY=           -403.6763   ZZ=           -445.3512
   XY=             -3.1389   XZ=             29.4675   YZ=            -18.2613

 Normal termination of Gaussian 16 at Fri Jun  4 21:01:20 2021.
