 Gaussian 16, Revision C.01,
 Gaussian 16:  ES64L-G16RevC.01  3-Jul-2019

 ---------------------------------------
 #N TD(NStates=10) CAM-B3lYP/6-311G(d,p)
 ---------------------------------------

 ---------
 C25H20ON4
 ---------
 Symbolic Z-matrix:
 Charge =  0 Multiplicity = 1

                         Standard orientation:
 ---------------------------------------------------------------------
 Center     Atomic      Atomic             Coordinates (Angstroms)
 Number     Number       Type             X           Y           Z
 ---------------------------------------------------------------------
      1          7           0       -7.909998    1.253969    0.142774
      2          6           0       -6.574396    1.683095    0.071958
      3          6           0       -6.224716    3.020085    0.336904
      4          6           0       -4.905762    3.432674    0.271831
      5          6           0       -3.864764    2.547807   -0.070616
      6          6           0       -4.223248    1.209454   -0.333163
      7          6           0       -5.539841    0.789367   -0.261587
      8          6           0       -8.380227    0.190077   -0.684328
      9          6           0       -8.139772    0.186767   -2.058668
     10          6           0       -8.603813   -0.849372   -2.868563
     11          6           0       -9.342969   -1.893833   -2.307784
     12          6           0       -9.597928   -1.889730   -0.930465
     13          6           0       -9.116110   -0.867613   -0.130167
     14          6           0       -8.839962    1.896087    1.014106
     15          6           0       -8.530097    2.104237    2.367058
     16          6           0       -9.438078    2.716094    3.214291
     17          6           0      -10.693327    3.119209    2.739834
     18          6           0      -11.016552    2.904664    1.398167
     19          6           0      -10.088232    2.306347    0.546330
     20          1           0       -6.995209    3.733982    0.597669
     21          1           0       -4.680164    4.468964    0.498303
     22          6           0       -2.484840    2.999872   -0.162535
     23          1           0       -3.447475    0.499094   -0.580148
     24          1           0       -5.776883   -0.247270   -0.464487
     25          1           0       -7.577801    0.999546   -2.503043
     26          1           0       -8.394282   -0.819678   -3.929304
     27          8           0       -9.854190   -2.949249   -3.004504
     28          1           0      -10.167946   -2.708999   -0.509386
     29          1           0       -9.311809   -0.878149    0.935373
     30          1           0       -7.568412    1.783124    2.749042
     31          1           0       -9.205337    2.879494    4.259556
     32          8           0      -11.517579    3.699883    3.657963
     33          1           0      -11.976525    3.204572    0.999999
     34          1           0      -10.343805    2.149938   -0.494819
     35          6           0       -1.282906    2.275618   -0.145620
     36          6           0       -0.106285    3.094768   -0.254457
     37          6           0       -0.377809    4.465497   -0.378134
     38         16           0       -2.112078    4.686524   -0.348304
     39          6           0        0.510252    5.603729   -0.504058
     40          6           0        0.009050    6.901710   -0.752363
     41          6           0        0.855298    7.984156   -0.867519
     42          6           0        2.256297    7.847595   -0.747145
     43          6           0        2.757878    6.550732   -0.496866
     44          6           0        1.913568    5.464646   -0.378821
     45          6           0        3.049220    9.041705   -0.889289
     46          6           0        4.395302    9.263865   -0.849832
     47          6           0        4.853720   10.666798   -1.041589
     48          8           0        4.127155   11.615023   -1.227708
     49          8           0        6.198576   10.777918   -0.985469
     50          7           0       -1.180821    0.924115   -0.077108
     51          7           0        1.127368    2.531332   -0.177907
     52          1           0       -1.057401    7.059955   -0.863452
     53          1           0        0.437961    8.966785   -1.060452
     54          1           0        3.821422    6.390273   -0.388936
     55          1           0        2.321048    4.484156   -0.181458
     56          1           0        2.480519    9.951504   -1.063693
     57          6           0        5.380494    8.258469   -0.643924
     58          1           0        6.401526   11.715065   -1.118375
     59          7           0        6.178366    7.437573   -0.477745
     60          6           0        0.017807    0.382125   -0.067225
     61          6           0        1.218367    1.224560   -0.043972
     62          6           0        0.056625   -1.099400   -0.126094
     63          6           0        0.956540   -1.795424   -0.945936
     64          6           0        2.863736   -0.298821    1.121652
     65          6           0        2.584582    0.693890    0.170991
     66          6           0        3.670141    1.260211   -0.515054
     67          6           0        4.970473    0.843827   -0.283801
     68          6           0        5.246095   -0.152584    0.671381
     69          6           0        4.162712   -0.711566    1.373495
     70          6           0        0.919234   -3.177455   -1.048123
     71          6           0       -0.022731   -3.928770   -0.323172
     72          6           0       -0.932293   -3.234188    0.494408
     73          6           0       -0.893412   -1.851338    0.580366
     74          1           0        3.481502    2.047183   -1.234934
     75          1           0        5.785583    1.299183   -0.831124
     76          1           0        4.345649   -1.475231    2.118017
     77          1           0        1.626466   -3.684753   -1.691361
     78          1           0       -1.675201   -3.785834    1.056155
     79          1           0       -1.616368   -1.332629    1.198018
     80          6           0      -12.804301    4.127650    3.235893
     81          6           0       -9.635946   -3.002584   -4.406606
     82          1           0      -13.281069    4.551523    4.118122
     83          1           0      -12.737793    4.895873    2.457164
     84          1           0      -13.406274    3.289106    2.867632
     85          1           0      -10.080230   -2.140066   -4.916237
     86          1           0       -8.567796   -3.054710   -4.646325
     87          1           0      -10.125273   -3.912775   -4.749452
     88          7           0        6.563324   -0.570972    0.920009
     89          6           0        7.321587   -1.100438   -1.356308
     90          6           0        7.553652   -0.523181   -0.107812
     91          6           0        8.792325    0.090731    0.127426
     92          6           0        9.765096    0.120671   -0.857495
     93          6           0        9.521054   -0.447919   -2.114088
     94          6           0        8.288091   -1.056718   -2.360896
     95          1           0        8.070818   -1.509849   -3.318708
     96          1           0        8.986667    0.543822    1.092135
     97          1           0        6.371857   -1.584646   -1.550533
     98          8           0       10.539567   -0.355970   -3.016430
     99          1           0       10.723176    0.595135   -0.683532
    100          6           0        7.636035   -2.272704    2.322719
    101          6           0        6.944038   -1.068002    2.202916
    102          6           0        6.655859   -0.341124    3.368280
    103          6           0        7.036569   -0.818062    4.610975
    104          6           0        7.736310   -2.026623    4.724127
    105          6           0        8.041139   -2.750216    3.569198
    106          1           0        6.128406    0.602131    3.290872
    107          1           0        7.869710   -2.842158    1.431142
    108          8           0        8.073392   -2.402074    5.991536
    109          1           0        6.818245   -0.261965    5.514580
    110          6           0       10.345412   -0.901550   -4.312771
    111          1           0       11.267560   -0.707872   -4.858250
    112          1           0       10.170051   -1.982760   -4.272741
    113          1           0        9.510267   -0.417634   -4.831847
    114          7           0       -0.054765   -5.332532   -0.413582
    115          6           0        1.279144   -7.052159   -1.552673
    116          6           0        0.357301   -5.996338   -1.607602
    117          6           0       -0.154800   -5.623844   -2.850921
    118          6           0        0.249857   -6.268547   -4.019704
    119          6           0        1.164996   -7.321932   -3.952753
    120          6           0        1.670346   -7.711439   -2.705973
    121          1           0        2.381259   -8.528037   -2.670234
    122          1           0       -0.872866   -4.814547   -2.909635
    123          1           0        1.684172   -7.354748   -0.594439
    124          8           0        1.623475   -8.026860   -5.027256
    125          1           0       -0.165465   -5.948922   -4.965976
    126          6           0       -1.419636   -7.151827    0.502168
    127          6           0       -0.491734   -6.127068    0.687818
    128          6           0        0.021807   -5.915156    1.976704
    129          6           0       -0.394468   -6.695710    3.041737
    130          6           0       -1.321505   -7.727857    2.846828
    131          6           0       -1.828151   -7.956576    1.565756
    132          1           0       -2.545492   -8.744915    1.381486
    133          1           0        0.749583   -5.128930    2.137603
    134          1           0       -1.823169   -7.330594   -0.487291
    135          8           0       -1.656472   -8.444559    3.958220
    136          1           0       -0.002626   -6.536135    4.038974
    137          6           0        1.150371   -7.674134   -6.318622
    138          6           0       -2.597563   -9.499139    3.822964
    139          1           0        1.647125   -8.350299   -7.012530
    140          1           0        0.065496   -7.806402   -6.400696
    141          1           0        1.409607   -6.640270   -6.573849
    142          1           0       -2.236195  -10.276247    3.139725
    143          1           0       -3.567841   -9.130120    3.471570
    144          1           0       -2.714414   -9.923285    4.818897
    145          1           0        8.581223   -3.685783    3.622832
    146          6           0        8.785842   -3.617345    6.168906
    147          1           0        8.946590   -3.714229    7.241391
    148          1           0        8.209166   -4.477954    5.811088
    149          1           0        9.755735   -3.593587    5.659081
    150          1           0        1.697901   -1.250975   -1.517365
    151          1           0        2.056105   -0.752177    1.682584
 ---------------------------------------------------------------------

 SCF Done:  E(RCAM-B3LYP) =  -4259.57383422     A.U. after   16 cycles

 Excitation energies and oscillator strengths:

 Excited State   1:      Singlet-A      2.3182 eV  534.82 nm  f=0.8581  <S**2>=0.000
     316 -> 320       -0.22036
     319 -> 320        0.63383
     319 -> 321       -0.15873
 This state for optimization and/or second-order correction.
 Total Energy, E(TD-HF/TD-DFT) =  -4259.48864067
 Copying the excited state density for this state as the 1-particle RhoCI density.

 Excited State   2:      Singlet-A      2.8541 eV  434.40 nm  f=0.6877  <S**2>=0.000
     315 -> 320       -0.18344
     316 -> 320       -0.11310
     318 -> 320        0.60883
     318 -> 321       -0.16913
     319 -> 321        0.12595

 Excited State   3:      Singlet-A      3.2013 eV  387.30 nm  f=0.4018  <S**2>=0.000
     317 -> 320        0.60264
     317 -> 321       -0.20677
     318 -> 322       -0.10074
     319 -> 321        0.15208

 Excited State   4:      Singlet-A      3.2913 eV  376.70 nm  f=0.4040  <S**2>=0.000
     308 -> 320       -0.12657
     316 -> 321       -0.29320
     317 -> 320       -0.10095
     319 -> 320        0.16909
     319 -> 321        0.53116

 Excited State   5:      Singlet-A      3.3847 eV  366.31 nm  f=0.0643  <S**2>=0.000
     305 -> 320       -0.11140
     308 -> 320       -0.31626
     308 -> 321        0.20158
     309 -> 320       -0.15330
     316 -> 320        0.40784
     317 -> 320        0.16186
     318 -> 320        0.11942
     319 -> 321       -0.16127

 Excited State   6:      Singlet-A      3.5385 eV  350.38 nm  f=0.0574  <S**2>=0.000
     308 -> 320        0.30018
     308 -> 321       -0.17913
     309 -> 320        0.14933
     316 -> 320        0.43124
     316 -> 321       -0.10253
     318 -> 320        0.12492
     319 -> 320        0.13788

 Excited State   7:      Singlet-A      3.8439 eV  322.55 nm  f=0.1516  <S**2>=0.000
     315 -> 321       -0.16378
     316 -> 320       -0.11445
     317 -> 320        0.11365
     318 -> 320        0.20279
     318 -> 321        0.56163
     318 -> 323       -0.11061
     319 -> 320       -0.10153

 Excited State   8:      Singlet-A      3.9566 eV  313.36 nm  f=0.1333  <S**2>=0.000
     315 -> 320        0.23689
     316 -> 320        0.10110
     317 -> 321       -0.24178
     317 -> 323        0.13720
     318 -> 320        0.12212
     318 -> 322       -0.13984
     319 -> 322        0.41040
     319 -> 323        0.12029

 Excited State   9:      Singlet-A      4.0377 eV  307.07 nm  f=0.6811  <S**2>=0.000
     317 -> 320        0.20574
     317 -> 321        0.23885
     318 -> 322        0.41353
     319 -> 322        0.26082
     319 -> 323        0.19724

 Excited State  10:      Singlet-A      4.0591 eV  305.45 nm  f=0.0243  <S**2>=0.000
     307 -> 320       -0.10368
     316 -> 325        0.19212
     317 -> 323       -0.11104
     317 -> 325        0.16383
     319 -> 323       -0.30942
     319 -> 324        0.17737
     319 -> 325        0.45190

 The electronic state is 1-A.
 Alpha  occ. eigenvalues --  -88.95827 -19.23952 -19.22398 -19.22389 -19.22288
 Alpha  occ. eigenvalues --  -19.22230 -19.21961 -19.21939 -19.18102 -14.41339
 Alpha  occ. eigenvalues --  -14.41183 -14.40878 -14.39480 -14.39318 -14.37443
 Alpha  occ. eigenvalues --  -10.38796 -10.31135 -10.31129 -10.31048 -10.30976
 Alpha  occ. eigenvalues --  -10.30765 -10.30704 -10.30700 -10.30490 -10.30261
 Alpha  occ. eigenvalues --  -10.30245 -10.30120 -10.30078 -10.29826 -10.29806
 Alpha  occ. eigenvalues --  -10.29475 -10.29390 -10.29338 -10.29156 -10.29068
 Alpha  occ. eigenvalues --  -10.29033 -10.28996 -10.28622 -10.28576 -10.28537
 Alpha  occ. eigenvalues --  -10.28517 -10.28509 -10.28449 -10.28103 -10.28079
 Alpha  occ. eigenvalues --  -10.28013 -10.27633 -10.26654 -10.26141 -10.26037
 Alpha  occ. eigenvalues --  -10.25471 -10.25393 -10.25284 -10.25282 -10.25201
 Alpha  occ. eigenvalues --  -10.25170 -10.25165 -10.25159 -10.25153 -10.25148
 Alpha  occ. eigenvalues --  -10.25138 -10.25136 -10.25127 -10.25083 -10.25050
 Alpha  occ. eigenvalues --  -10.24989 -10.24964 -10.24899 -10.24888 -10.24845
 Alpha  occ. eigenvalues --  -10.24759 -10.24757 -10.24729 -10.24721 -10.24718
 Alpha  occ. eigenvalues --  -10.24703 -10.24696 -10.24687 -10.24674 -10.24620
 Alpha  occ. eigenvalues --  -10.24543 -10.24481 -10.24403 -10.24345 -10.24298
 Alpha  occ. eigenvalues --  -10.24238 -10.24144 -10.24128 -10.24092 -10.23899
 Alpha  occ. eigenvalues --  -10.23851  -8.04729  -6.01101  -6.00703  -6.00442
 Alpha  occ. eigenvalues --   -1.19589  -1.15239  -1.15235  -1.15141  -1.15076
 Alpha  occ. eigenvalues --   -1.14809  -1.14795  -1.10219  -1.07041  -1.05126
 Alpha  occ. eigenvalues --   -1.05006  -1.04703  -0.99951  -0.98548  -0.97945
 Alpha  occ. eigenvalues --   -0.95722  -0.94705  -0.94652  -0.94620  -0.94355
 Alpha  occ. eigenvalues --   -0.94251  -0.94132  -0.92716  -0.92594  -0.92160
 Alpha  occ. eigenvalues --   -0.91210  -0.87227  -0.87114  -0.85107  -0.85076
 Alpha  occ. eigenvalues --   -0.84963  -0.84816  -0.84692  -0.84007  -0.83897
 Alpha  occ. eigenvalues --   -0.83837  -0.83762  -0.83689  -0.83505  -0.83339
 Alpha  occ. eigenvalues --   -0.83032  -0.82854  -0.82680  -0.82533  -0.82189
 Alpha  occ. eigenvalues --   -0.81321  -0.80324  -0.79629  -0.78539  -0.78513
 Alpha  occ. eigenvalues --   -0.78156  -0.76913  -0.76778  -0.76571  -0.75279
 Alpha  occ. eigenvalues --   -0.73785  -0.72262  -0.71407  -0.70463  -0.70355
 Alpha  occ. eigenvalues --   -0.70306  -0.70149  -0.69945  -0.69708  -0.69343
 Alpha  occ. eigenvalues --   -0.69175  -0.68942  -0.68812  -0.68433  -0.67774
 Alpha  occ. eigenvalues --   -0.67550  -0.67385  -0.67293  -0.66938  -0.66000
 Alpha  occ. eigenvalues --   -0.65046  -0.64730  -0.64303  -0.63540  -0.62468
 Alpha  occ. eigenvalues --   -0.61978  -0.61906  -0.61705  -0.61610  -0.61564
 Alpha  occ. eigenvalues --   -0.61322  -0.61076  -0.60297  -0.60076  -0.59899
 Alpha  occ. eigenvalues --   -0.58952  -0.58791  -0.58480  -0.58317  -0.57730
 Alpha  occ. eigenvalues --   -0.56910  -0.56758  -0.56745  -0.56429  -0.55823
 Alpha  occ. eigenvalues --   -0.55602  -0.55480  -0.55076  -0.54893  -0.54720
 Alpha  occ. eigenvalues --   -0.54707  -0.54595  -0.54545  -0.54285  -0.54265
 Alpha  occ. eigenvalues --   -0.54022  -0.53665  -0.53209  -0.53184  -0.52798
 Alpha  occ. eigenvalues --   -0.52424  -0.52345  -0.52317  -0.52190  -0.52026
 Alpha  occ. eigenvalues --   -0.51929  -0.51621  -0.51336  -0.51030  -0.50841
 Alpha  occ. eigenvalues --   -0.50831  -0.50516  -0.50133  -0.50068  -0.49912
 Alpha  occ. eigenvalues --   -0.49869  -0.49736  -0.49696  -0.49567  -0.49509
 Alpha  occ. eigenvalues --   -0.49505  -0.49175  -0.49032  -0.48838  -0.48830
 Alpha  occ. eigenvalues --   -0.48780  -0.48647  -0.48547  -0.48436  -0.48194
 Alpha  occ. eigenvalues --   -0.47852  -0.47706  -0.47146  -0.47006  -0.46640
 Alpha  occ. eigenvalues --   -0.45984  -0.45799  -0.45747  -0.45659  -0.45617
 Alpha  occ. eigenvalues --   -0.45567  -0.45510  -0.45454  -0.45390  -0.45230
 Alpha  occ. eigenvalues --   -0.45120  -0.45006  -0.44658  -0.44028  -0.43784
 Alpha  occ. eigenvalues --   -0.43737  -0.43629  -0.43469  -0.43413  -0.43132
 Alpha  occ. eigenvalues --   -0.43039  -0.42884  -0.42754  -0.42548  -0.42333
 Alpha  occ. eigenvalues --   -0.42124  -0.41309  -0.41047  -0.40628  -0.40473
 Alpha  occ. eigenvalues --   -0.40281  -0.40211  -0.39969  -0.39931  -0.39832
 Alpha  occ. eigenvalues --   -0.39805  -0.39668  -0.39645  -0.39533  -0.39501
 Alpha  occ. eigenvalues --   -0.39462  -0.39331  -0.39238  -0.39148  -0.39051
 Alpha  occ. eigenvalues --   -0.37603  -0.37389  -0.36145  -0.35952  -0.35306
 Alpha  occ. eigenvalues --   -0.34920  -0.32399  -0.32302  -0.32233  -0.32126
 Alpha  occ. eigenvalues --   -0.31876  -0.31811  -0.31623  -0.31473  -0.31328
 Alpha  occ. eigenvalues --   -0.31199  -0.31027  -0.30516  -0.30401  -0.29739
 Alpha  occ. eigenvalues --   -0.29567  -0.28854  -0.28825  -0.28470  -0.27937
 Alpha  occ. eigenvalues --   -0.25201  -0.23240  -0.22548  -0.21788
 Alpha virt. eigenvalues --   -0.06841  -0.03601   0.00154   0.01430   0.01664
 Alpha virt. eigenvalues --    0.01849   0.02182   0.03433   0.03442   0.03474
 Alpha virt. eigenvalues --    0.03738   0.03889   0.03913   0.03969   0.04219

 Mulliken charges:
               1
     1  N   -0.488723
     2  C    0.174411
     3  C   -0.125104
     4  C   -0.101789
     5  C   -0.012067
     6  C   -0.023847
     7  C   -0.125353
     8  C    0.040441
     9  C   -0.059701
    10  C   -0.139313
    11  C    0.158025
    12  C   -0.094034
    13  C   -0.063615
    14  C    0.045450
    15  C   -0.061621
    16  C   -0.092440
    17  C    0.157908
    18  C   -0.140449
    19  C   -0.066997
    20  H    0.124873
    21  H    0.107317
    22  C   -0.301384
    23  H    0.132492
    24  H    0.124682
    25  H    0.118226
    26  H    0.116204
    27  O   -0.343864
    28  H    0.114030
    29  H    0.115459
    30  H    0.120286
    31  H    0.115806
    32  O   -0.343206
    33  H    0.115527
    34  H    0.114787
    35  C    0.188822
    36  C    0.212665
    37  C   -0.331461
    38  S    0.375070
    39  C    0.013527
    40  C   -0.107586
    41  C   -0.067236
    42  C   -0.110201
    43  C   -0.054182
    44  C   -0.037688
    45  C    0.062829
    46  C   -0.223003
    47  C    0.434327
    48  O   -0.332335
    49  O   -0.321547
    50  N   -0.321041
    51  N   -0.337592
    52  H    0.108380
    53  H    0.104384
    54  H    0.135312
    55  H    0.148345
    56  H    0.135336
    57  C    0.042990
    58  H    0.260884
    59  N   -0.200570
    60  C    0.126743
    61  C    0.147679
    62  C   -0.168435
    63  C   -0.033067
    64  C   -0.031032
    65  C   -0.170642
    66  C   -0.034101
    67  C   -0.114226
    68  C    0.176836
    69  C   -0.119187
    70  C   -0.114660
    71  C    0.170397
    72  C   -0.117456
    73  C   -0.034878
    74  H    0.110343
    75  H    0.129303
    76  H    0.124834
    77  H    0.123375
    78  H    0.125649
    79  H    0.110079
    80  C   -0.148310
    81  C   -0.148093
    82  H    0.135310
    83  H    0.114799
    84  H    0.114592
    85  H    0.114537
    86  H    0.114711
    87  H    0.134595
    88  N   -0.488671
    89  C   -0.056173
    90  C    0.034547
    91  C   -0.059024
    92  C   -0.092688
    93  C    0.158878
    94  C   -0.139387
    95  H    0.114943
    96  H    0.115901
    97  H    0.113765
    98  O   -0.342875
    99  H    0.115689
   100  C   -0.064171
   101  C    0.041320
   102  C   -0.057973
   103  C   -0.092643
   104  C    0.157974
   105  C   -0.140873
   106  H    0.121489
   107  H    0.113202
   108  O   -0.343399
   109  H    0.115983
   110  C   -0.147987
   111  H    0.134921
   112  H    0.113050
   113  H    0.115430
   114  N   -0.490478
   115  C   -0.063785
   116  C    0.039645
   117  C   -0.059177
   118  C   -0.139760
   119  C    0.157686
   120  C   -0.094466
   121  H    0.113971
   122  H    0.117855
   123  H    0.115255
   124  O   -0.344024
   125  H    0.115782
   126  C   -0.066560
   127  C    0.047565
   128  C   -0.062175
   129  C   -0.092409
   130  C    0.157519
   131  C   -0.140100
   132  H    0.115263
   133  H    0.118469
   134  H    0.114088
   135  O   -0.343643
   136  H    0.115169
   137  C   -0.147942
   138  C   -0.148279
   139  H    0.134818
   140  H    0.114105
   141  H    0.114508
   142  H    0.114155
   143  H    0.114987
   144  H    0.134905
   145  H    0.114901
   146  C   -0.148155
   147  H    0.134689
   148  H    0.114043
   149  H    0.114761
   150  H    0.117187
   151  H    0.117852
 Sum of Mulliken charges =  -0.00000

 Dipole moment (field-independent basis, Debye):
    X=             -6.4700    Y=             -8.7947    Z=             -3.9690  Tot=             11.6173
 Quadrupole moment (field-independent basis, Debye-Ang):
   XX=           -463.2288   YY=           -511.9882   ZZ=           -484.5616
   XY=            -47.0177   XZ=              6.4575   YZ=              7.5183

 Normal termination of Gaussian 16 at Thu Jul 29 10:46:38 2021.
