 Gaussian 09, Revision D.01,
 Gaussian 09:  ES64L-G09RevD.01 24-Apr-2013

 -----------------------------------
 #N TD(NStates=10) B3lYP/6-311G(d,p)
 -----------------------------------

 ----
 Name
 ----
 Symbolic Z-matrix:
 Charge =  0 Multiplicity = 1

                         Standard orientation:
 ---------------------------------------------------------------------
 Center     Atomic      Atomic             Coordinates (Angstroms)
 Number     Number       Type             X           Y           Z
 ---------------------------------------------------------------------
      1          1           0        6.848501    1.447723    1.225671
      2          1           0        9.849403   -1.401018   -1.288192
      3          1           0       10.556753    1.912236    1.343405
      4          1           0       -2.236446   -2.253271   -1.356969
      5          1           0        5.631579   -2.225753   -1.593213
      6          1           0        3.012075   -2.311230   -1.448545
      7          1           0        1.775447    0.922417    1.937024
      8          1           0       -0.827273    0.955055    1.968890
      9          1           0       -4.833176   -2.024149   -1.567007
     10          1           0       -5.885828    4.134410   -2.228034
     11          1           0       -5.231700    1.761848   -1.994243
     12          1           0       -5.740362   -1.973924    1.580479
     13          1           0       -7.396067   -3.726424    2.113294
     14          1           0       -9.636700   -3.700868    1.038414
     15          1           0      -10.192386   -1.902134   -0.583145
     16          1           0       -8.529784   -0.161524   -1.129573
     17          1           0       -7.789158    1.392400    1.430071
     18          1           0       -8.464192    3.755197    1.182147
     19          1           0       -7.512528    5.143804   -0.644640
     20          7           0        8.812246    1.046684    0.761612
     21          6           0        7.514099    0.805559    0.657652
     22          6           0        7.013284   -0.237607   -0.151367
     23          7           0        7.862136   -1.023300   -0.845057
     24          6           0        9.160715   -0.773585   -0.733626
     25          6           0        9.646935    0.261062    0.067867
     26          8           0       11.404771    1.569485    1.005756
     27          6           0       11.115897    0.541499    0.192186
     28          8           0       11.957145   -0.096913   -0.384233
     29          6           0       -2.808023   -1.474185   -0.869201
     30         16           0        0.414683   -0.993340   -0.823102
     31         16           0        4.354085    0.422096    0.518380
     32          6           0        5.595338   -0.522792   -0.282331
     33          6           0        5.026311   -1.533928   -1.025045
     34          6           0        3.620681   -1.570068   -0.947824
     35          6           0        3.082070   -0.583616   -0.143009
     36          6           0        1.699100   -0.322801    0.167924
     37          6           0        1.164416    0.426295    1.194092
     38          6           0       -0.246704    0.444332    1.212090
     39          6           0       -0.825771   -0.288432    0.196883
     40          6           0       -2.224075   -0.504399   -0.085783
     41         16           0       -3.448277    0.580386    0.557742
     42          6           0       -4.729816   -0.292173   -0.286788
     43          6           0       -4.212645   -1.351837   -0.990485
     44          6           0       -6.306062    3.539078   -1.425276
     45          6           0       -5.934303    2.204504   -1.298677
     46          6           0       -6.714639   -1.962591    1.107721
     47          6           0       -7.650204   -2.948627    1.401908
     48          6           0       -8.908773   -2.933568    0.802713
     49          6           0       -9.220188   -1.921855   -0.103455
     50          6           0       -8.286518   -0.938704   -0.415676
     51          6           0       -7.025523   -0.948883    0.193059
     52          7           0       -6.067496    0.060305   -0.121739
     53          6           0       -6.466006    1.421906   -0.267107
     54          6           0       -7.379921    1.993150    0.627243
     55          6           0       -7.757030    3.323933    0.482507
     56          6           0       -7.220904    4.105423   -0.539870
 ---------------------------------------------------------------------

 SCF Done:  E(RB3LYP) =  -2626.20548433     A.U. after   16 cycles

 Excitation energies and oscillator strengths:

 Excited State   1:      Singlet-A      2.2192 eV  558.69 nm  f=0.7730  <S**2>=0.000
     139 ->140         0.70349
 This state for optimization and/or second-order correction.
 Total Energy, E(TD-HF/TD-KS) =  -2626.12392981
 Copying the excited state density for this state as the 1-particle RhoCI density.

 Excited State   2:      Singlet-A      2.9017 eV  427.28 nm  f=0.3877  <S**2>=0.000
     138 ->140        -0.12414
     139 ->141         0.68478

 Excited State   3:      Singlet-A      2.9744 eV  416.84 nm  f=0.4729  <S**2>=0.000
     138 ->140         0.67826
     139 ->141         0.12766
     139 ->142        -0.13046

 Excited State   4:      Singlet-A      3.2762 eV  378.43 nm  f=0.0139  <S**2>=0.000
     138 ->140         0.13818
     138 ->141         0.11530
     139 ->142         0.66679

 Excited State   5:      Singlet-A      3.5401 eV  350.23 nm  f=0.0011  <S**2>=0.000
     134 ->140         0.66603
     134 ->141        -0.19150

 Excited State   6:      Singlet-A      3.6116 eV  343.30 nm  f=0.0629  <S**2>=0.000
     138 ->141         0.67406
     139 ->143        -0.10152

 Excited State   7:      Singlet-A      3.8485 eV  322.17 nm  f=0.0283  <S**2>=0.000
     137 ->140         0.55554
     138 ->142         0.36750
     139 ->143         0.15207

 Excited State   8:      Singlet-A      3.8883 eV  318.86 nm  f=0.0136  <S**2>=0.000
     136 ->140        -0.11361
     138 ->145         0.11181
     139 ->143         0.27380
     139 ->144         0.19268
     139 ->145         0.57273

 Excited State   9:      Singlet-A      3.8981 eV  318.07 nm  f=0.1307  <S**2>=0.000
     136 ->140         0.11248
     139 ->143        -0.12676
     139 ->144         0.65601
     139 ->145        -0.12747

 Excited State  10:      Singlet-A      3.9367 eV  314.95 nm  f=0.0183  <S**2>=0.000
     139 ->143         0.56431
     139 ->145        -0.34213

 The electronic state is 1-A.
 Alpha  occ. eigenvalues --  -88.89764 -88.89220 -88.88578 -19.15744 -19.10393
 Alpha  occ. eigenvalues --  -14.36552 -14.35910 -14.34422 -10.30447 -10.25694
 Alpha  occ. eigenvalues --  -10.25110 -10.24256 -10.24012 -10.23920 -10.23783
 Alpha  occ. eigenvalues --  -10.23252 -10.23138 -10.22940 -10.22878 -10.22714
 Alpha  occ. eigenvalues --  -10.22502 -10.19859 -10.19727 -10.19706 -10.19343
 Alpha  occ. eigenvalues --  -10.19216 -10.18709 -10.18539 -10.18520 -10.18509
 Alpha  occ. eigenvalues --  -10.18500 -10.18412 -10.18386 -10.18332 -10.18331
 Alpha  occ. eigenvalues --  -10.18109 -10.18028  -7.98413  -7.97860  -7.97218
 Alpha  occ. eigenvalues --   -5.94719  -5.94346  -5.94173  -5.93974  -5.93796
 Alpha  occ. eigenvalues --   -5.93524  -5.93412  -5.93165  -5.92762  -1.10507
 Alpha  occ. eigenvalues --   -1.02501  -1.01201  -0.98939  -0.94031  -0.91888
 Alpha  occ. eigenvalues --   -0.90308  -0.88554  -0.87156  -0.85558  -0.82574
 Alpha  occ. eigenvalues --   -0.79569  -0.77249  -0.77108  -0.76547  -0.75962
 Alpha  occ. eigenvalues --   -0.75919  -0.75501  -0.74905  -0.73551  -0.71047
 Alpha  occ. eigenvalues --   -0.69061  -0.68630  -0.64311  -0.63861  -0.62597
 Alpha  occ. eigenvalues --   -0.61810  -0.61640  -0.60989  -0.59631  -0.57922
 Alpha  occ. eigenvalues --   -0.57864  -0.56980  -0.55800  -0.55246  -0.54494
 Alpha  occ. eigenvalues --   -0.54187  -0.54074  -0.53033  -0.51155  -0.49523
 Alpha  occ. eigenvalues --   -0.49152  -0.48157  -0.47585  -0.47264  -0.46780
 Alpha  occ. eigenvalues --   -0.46304  -0.45726  -0.45212  -0.44682  -0.44394
 Alpha  occ. eigenvalues --   -0.44021  -0.43775  -0.43549  -0.43319  -0.42649
 Alpha  occ. eigenvalues --   -0.42527  -0.42323  -0.41692  -0.41055  -0.40188
 Alpha  occ. eigenvalues --   -0.39665  -0.39408  -0.38609  -0.38493  -0.38366
 Alpha  occ. eigenvalues --   -0.37929  -0.37380  -0.37040  -0.36400  -0.36003
 Alpha  occ. eigenvalues --   -0.35826  -0.35815  -0.35200  -0.33859  -0.32971
 Alpha  occ. eigenvalues --   -0.32258  -0.31423  -0.29481  -0.29257  -0.28018
 Alpha  occ. eigenvalues --   -0.27719  -0.27501  -0.27286  -0.26990  -0.26626
 Alpha  occ. eigenvalues --   -0.26298  -0.25731  -0.22277  -0.19493
 Alpha virt. eigenvalues --   -0.10391  -0.07591  -0.06193  -0.03556  -0.03158
 Alpha virt. eigenvalues --   -0.02890  -0.01304  -0.01071  -0.00307  -0.00027
 Alpha virt. eigenvalues --    0.00331   0.01332   0.03375   0.03535   0.03652

 Mulliken charges:
               1
     1  H    0.120592
     2  H    0.135975
     3  H    0.253206
     4  H    0.107783
     5  H    0.115251
     6  H    0.113721
     7  H    0.109672
     8  H    0.111078
     9  H    0.108271
    10  H    0.098792
    11  H    0.115205
    12  H    0.115090
    13  H    0.097917
    14  H    0.095639
    15  H    0.098140
    16  H    0.113272
    17  H    0.111917
    18  H    0.098664
    19  H    0.096319
    20  N   -0.354785
    21  C    0.101921
    22  C    0.129538
    23  N   -0.298186
    24  C    0.136312
    25  C   -0.070395
    26  O   -0.299286
    27  C    0.416491
    28  O   -0.317296
    29  C   -0.057889
    30  S    0.320005
    31  S    0.324819
    32  C   -0.319636
    33  C    0.016963
    34  C   -0.047913
    35  C   -0.214518
    36  C   -0.219041
    37  C   -0.047309
    38  C   -0.056148
    39  C   -0.195251
    40  C   -0.210603
    41  S    0.280097
    42  C   -0.079358
    43  C   -0.027937
    44  C   -0.090813
    45  C   -0.075637
    46  C   -0.072758
    47  C   -0.094596
    48  C   -0.090403
    49  C   -0.093225
    50  C   -0.082125
    51  C    0.114074
    52  N   -0.473576
    53  C    0.084944
    54  C   -0.071267
    55  C   -0.092004
    56  C   -0.089709
 Sum of Mulliken charges =   0.00000

 Dipole moment (field-independent basis, Debye):
    X=             -9.4566    Y=              0.0066    Z=              0.6636  Tot=              9.4799
 Quadrupole moment (field-independent basis, Debye-Ang):
   XX=           -320.1948   YY=           -221.8541   ZZ=           -228.7433
   XY=              1.2373   XZ=              5.7463   YZ=              3.2042

 Normal termination of Gaussian 09 at Sun Apr 18 04:11:17 2021.
