 Gaussian 09, Revision D.01,
 Gaussian 09:  ES64L-G09RevD.01 24-Apr-2013

 ---------------------------------------
 #N CAM-B3LYP/6-311G(d,p) TD(NStates=10)
 ---------------------------------------

 ----
 Name
 ----
 Symbolic Z-matrix:
 Charge =  0 Multiplicity = 1

                         Standard orientation:
 ---------------------------------------------------------------------
 Center     Atomic      Atomic             Coordinates (Angstroms)
 Number     Number       Type             X           Y           Z
 ---------------------------------------------------------------------
      1          7           0       -4.334466    0.091766   -0.012098
      2          6           0       -4.941970   -1.170533    0.004853
      3          6           0       -6.328753   -1.213314   -0.218484
      4          6           0       -7.002632   -2.424504   -0.212842
      5          6           0       -6.312191   -3.616267    0.013202
      6          6           0       -4.940634   -3.574271    0.240283
      7          6           0       -4.249417   -2.364901    0.240740
      8          6           0       -0.474431    0.860577   -0.018027
      9          6           0       -1.218523    2.052229    0.003721
     10          6           0       -2.651490    1.845206    0.024011
     11          7           0       -3.382760    2.960053    0.042894
     12         16           0       -2.298314    4.190193    0.041470
     13          7           0       -0.885998    3.353582    0.014083
     14          6           0       -3.036354    0.485715    0.013173
     15         16           0       -1.609346   -0.495226   -0.027785
     16          8           0        8.054517   -1.577076   -0.010016
     17          6           0        6.738194   -1.891467   -0.017132
     18          6           0        5.777462   -0.743968   -0.010336
     19          6           0        6.301212    0.571355    0.003465
     20          7           0        6.788499    1.624046    0.014797
     21          6           0        4.436397   -1.034883   -0.017817
     22          6           0        3.317712   -0.170759   -0.014335
     23          6           0        3.208502    1.218811   -0.001343
     24          6           0        1.898244    1.693908   -0.001857
     25          6           0        0.932798    0.680079   -0.014568
     26         16           0        1.698955   -0.887135   -0.027690
     27          8           0        6.387007   -3.042960   -0.028360
     28          1           0       -4.973091    0.875945   -0.069114
     29          1           0       -6.870426   -0.290628   -0.400821
     30          1           0       -8.071919   -2.438539   -0.388340
     31          1           0       -6.838887   -4.562569    0.013870
     32          1           0       -4.392185   -4.490411    0.425331
     33          1           0       -3.189181   -2.369351    0.446427
     34          1           0        8.185026   -0.618623   -0.001280
     35          1           0        4.237378   -2.103645   -0.028132
     36          1           0        4.072089    1.868944    0.008468
     37          1           0        1.626597    2.739637    0.006703
 ---------------------------------------------------------------------

 SCF Done:  E(RCAM-B3LYP) =  -2255.66731482     A.U. after   20 cycles

 Excitation energies and oscillator strengths:

 Excited State   1:      Singlet-A      1.8106 eV  684.77 nm  f=0.3662  <S**2>=0.000
     105 ->106         0.69469
 This state for optimization and/or second-order correction.
 Total Energy, E(TD-HF/TD-KS) =  -2255.60077703
 Copying the excited state density for this state as the 1-particle RhoCI density.

 Excited State   2:      Singlet-A      2.9001 eV  427.52 nm  f=0.9085  <S**2>=0.000
     105 ->107         0.68587

 Excited State   3:      Singlet-A      3.7417 eV  331.36 nm  f=0.0011  <S**2>=0.000
     105 ->108         0.50134
     105 ->110         0.44891
     105 ->112        -0.11206

 Excited State   4:      Singlet-A      3.8012 eV  326.17 nm  f=0.1451  <S**2>=0.000
     104 ->106         0.67521

 Excited State   5:      Singlet-A      4.2734 eV  290.13 nm  f=0.0147  <S**2>=0.000
      99 ->106        -0.14403
     102 ->106         0.17159
     103 ->106         0.47930
     103 ->107         0.16399
     104 ->107        -0.11421
     105 ->109         0.36519
     105 ->111        -0.13645

 Excited State   6:      Singlet-A      4.4141 eV  280.88 nm  f=0.2406  <S**2>=0.000
     102 ->106        -0.29827
     103 ->106         0.45224
     105 ->109        -0.37213
     105 ->111         0.10177

 Excited State   7:      Singlet-A      4.4907 eV  276.09 nm  f=0.0304  <S**2>=0.000
      99 ->106         0.30629
     100 ->106         0.21614
     102 ->106        -0.35001
     104 ->107        -0.16292
     105 ->108        -0.10338
     105 ->109         0.35595
     105 ->110         0.12863

 Excited State   8:      Singlet-A      4.6036 eV  269.32 nm  f=0.0033  <S**2>=0.000
     100 ->106         0.26657
     102 ->106         0.34711
     104 ->108        -0.13775
     104 ->110         0.10536
     105 ->108        -0.29550
     105 ->110         0.33148

 Excited State   9:      Singlet-A      4.6433 eV  267.02 nm  f=0.0273  <S**2>=0.000
      93 ->106         0.12558
      96 ->106         0.56366
      96 ->107        -0.22045
      96 ->109         0.11924
      99 ->106        -0.21513

 Excited State  10:      Singlet-A      4.6562 eV  266.28 nm  f=0.1050  <S**2>=0.000
      96 ->106         0.19547
      99 ->106         0.48274
     101 ->106        -0.12657
     101 ->107        -0.16751
     102 ->106         0.23919
     103 ->107         0.12590
     105 ->108         0.13219
     105 ->110        -0.13229

 The electronic state is 1-A.
 Alpha  occ. eigenvalues --  -89.03934 -89.00395 -88.96290 -19.22962 -19.16724
 Alpha  occ. eigenvalues --  -14.48227 -14.45810 -14.44056 -14.39177 -10.38255
 Alpha  occ. eigenvalues --  -10.38037 -10.33653 -10.33009 -10.32815 -10.32007
 Alpha  occ. eigenvalues --  -10.30608 -10.29953 -10.29524 -10.29231 -10.28877
 Alpha  occ. eigenvalues --  -10.28281 -10.28154 -10.28017 -10.27951 -10.27358
 Alpha  occ. eigenvalues --  -10.27237 -10.25985  -8.12369  -8.09205  -8.05221
 Alpha  occ. eigenvalues --   -6.08883  -6.08269  -6.08084  -6.05620  -6.05186
 Alpha  occ. eigenvalues --   -6.04877  -6.01630  -6.01243  -6.00844  -1.18123
 Alpha  occ. eigenvalues --   -1.13904  -1.10358  -1.09736  -1.00950  -1.00211
 Alpha  occ. eigenvalues --   -1.00114  -0.98503  -0.96652  -0.91896  -0.88219
 Alpha  occ. eigenvalues --   -0.87545  -0.86432  -0.85466  -0.83968  -0.80674
 Alpha  occ. eigenvalues --   -0.76361  -0.74930  -0.73286  -0.72855  -0.69717
 Alpha  occ. eigenvalues --   -0.69162  -0.68411  -0.66147  -0.65184  -0.63665
 Alpha  occ. eigenvalues --   -0.62489  -0.61988  -0.59602  -0.59248  -0.56994
 Alpha  occ. eigenvalues --   -0.55693  -0.54784  -0.54045  -0.53057  -0.52822
 Alpha  occ. eigenvalues --   -0.52452  -0.52397  -0.51591  -0.50781  -0.50358
 Alpha  occ. eigenvalues --   -0.49041  -0.48283  -0.46905  -0.46473  -0.46041
 Alpha  occ. eigenvalues --   -0.45219  -0.45178  -0.44816  -0.44081  -0.43843
 Alpha  occ. eigenvalues --   -0.43497  -0.42855  -0.41800  -0.41326  -0.40996
 Alpha  occ. eigenvalues --   -0.39585  -0.38702  -0.37273  -0.35464  -0.34453
 Alpha  occ. eigenvalues --   -0.34183  -0.33392  -0.32916  -0.30245  -0.23459
 Alpha virt. eigenvalues --   -0.09594  -0.05405   0.00152   0.00387   0.00699
 Alpha virt. eigenvalues --    0.02810   0.03362   0.04953   0.06250   0.06580
 Alpha virt. eigenvalues --    0.07231   0.07684   0.07790   0.08284   0.08685

 Mulliken charges:
               1
     1  N   -0.462050
     2  C    0.188926
     3  C   -0.112283
     4  C   -0.101947
     5  C   -0.095090
     6  C   -0.107812
     7  C   -0.111979
     8  C   -0.340495
     9  C    0.232437
    10  C    0.091368
    11  N   -0.468405
    12  S    0.582113
    13  N   -0.488770
    14  C    0.044226
    15  S    0.424972
    16  O   -0.302686
    17  C    0.444661
    18  C   -0.230005
    19  C   -0.038495
    20  N   -0.208103
    21  C    0.074424
    22  C   -0.311110
    23  C   -0.001269
    24  C   -0.020247
    25  C   -0.186162
    26  S    0.299895
    27  O   -0.317402
    28  H    0.258431
    29  H    0.111364
    30  H    0.115642
    31  H    0.114475
    32  H    0.116014
    33  H    0.131403
    34  H    0.255584
    35  H    0.140783
    36  H    0.145157
    37  H    0.132433
 Sum of Mulliken charges =   0.00000

 Dipole moment (field-independent basis, Debye):
    X=            -12.8992    Y=              1.1572    Z=             -0.0190  Tot=             12.9511
 Quadrupole moment (field-independent basis, Debye-Ang):
   XX=           -193.7818   YY=           -177.9829   ZZ=           -180.3890
   XY=             18.2935   XZ=              1.8559   YZ=             -1.0664

 Normal termination of Gaussian 09 at Sat Sep 11 09:36:55 2021.
