 Gaussian 16, Revision B.01,
 Gaussian 16:  ES64L-G16RevB.01 20-Dec-2017

 ---------------------------------------
 #N TD(NStates=10) BHandHLYP/6-311G(d,p)
 ---------------------------------------

 ----
 Name
 ----
 Symbolic Z-matrix:
 Charge =  0 Multiplicity = 1

                         Standard orientation:
 ---------------------------------------------------------------------
 Center     Atomic      Atomic             Coordinates (Angstroms)
 Number     Number       Type             X           Y           Z
 ---------------------------------------------------------------------
      1          6           0        9.572500   -2.625230    0.622714
      2          6           0        8.239196   -1.991206    0.350223
      3          6           0        8.066035   -0.662939   -0.006048
      4          6           0        9.037824    0.329136   -0.178257
      5          6           0        9.868849    1.200972   -0.330786
      6          6           0       10.832902    2.223419   -0.509322
      7          6           0       12.201950    1.967704   -0.302263
      8          6           0       13.138535    2.976377   -0.470222
      9          6           0       12.744022    4.265838   -0.849649
     10          6           0       13.707576    5.391186   -1.067154
     11          8           0       14.936269    5.262229   -0.496154
     12          8           0       13.444192    6.372847   -1.707431
     13          6           0       11.385741    4.515923   -1.081711
     14          6           0       10.442067    3.519119   -0.906263
     15         16           0        6.367486   -0.285381   -0.247341
     16          6           0        5.892851   -1.931697    0.136652
     17          6           0        4.491240   -2.321388    0.119400
     18          6           0        4.045086   -3.656567    0.426643
     19          7           0        4.826441   -4.685318    0.757553
     20         16           0        3.855372   -5.979721    1.008542
     21          7           0        2.404868   -5.284678    0.707382
     22          6           0        2.628103   -4.007303    0.397647
     23          6           0        3.477946   -1.431110   -0.195564
     24          6           0        2.110145   -1.768213   -0.221970
     25          6           0        1.618507   -3.032369    0.062827
     26          6           0        0.200274   -3.344310    0.024624
     27         16           0       -0.978552   -2.124581   -0.437665
     28          6           0       -0.451555   -4.524327    0.308653
     29          6           0       -1.866186   -4.474899    0.179422
     30          6           0       -2.739275   -5.660670    0.497717
     31          6           0       -2.317711   -3.230734   -0.215118
     32          6           0       -3.689063   -2.757154   -0.457375
     33          6           0       -4.589015   -3.540927   -1.209351
     34          6           0       -5.867652   -3.088000   -1.501455
     35          6           0       -4.105764   -1.510631    0.031617
     36          6           0       -5.403856   -1.047611   -0.203123
     37          6           0       -6.253955   -1.838216   -1.020255
     38          7           0       -7.435109   -1.157498   -1.249887
     39          6           0       -8.634127   -1.833175   -1.718003
     40          6           0       -7.360400    0.089678   -0.632982
     41          6           0       -6.156296    0.155140    0.118542
     42          6           0       -5.987749    1.267289    0.981336
     43          6           0       -6.883402    2.369861    0.964180
     44          6           0       -6.497472    3.242595    2.059568
     45          6           0       -7.033648    4.384988    2.672851
     46          6           0       -6.401217    4.940793    3.778761
     47          6           0       -5.235774    4.370533    4.304751
     48          6           0       -4.704060    3.211801    3.751516
     49          6           0       -5.351325    2.651750    2.649384
     50          7           0       -5.061991    1.459295    1.999834
     51          6           0       -4.207686    0.450846    2.605945
     52          6           0       -7.921813    2.358980    0.002547
     53          6           0       -8.220281    1.205743   -0.771821
     54          6           0       -9.312962    1.571147   -1.661645
     55          6           0       -9.632895    2.919542   -1.357383
     56          7           0       -8.779443    3.386228   -0.367765
     57          6           0       -8.567981    4.810508   -0.161228
     58          6           0      -10.628968    3.627450   -2.029638
     59          6           0      -11.314396    2.982705   -3.052244
     60          6           0      -10.991458    1.666990   -3.402555
     61          6           0       -9.999776    0.966209   -2.724938
     62          6           0        7.009795   -2.689606    0.425960
     63          1           0       10.381571   -1.899431    0.536912
     64          1           0        9.767996   -3.438633   -0.082877
     65          1           0        9.601650   -3.053173    1.629290
     66          1           0       12.518966    0.972137   -0.018074
     67          1           0       14.187707    2.731158   -0.337395
     68          1           0       14.943136    4.517058    0.115055
     69          1           0       11.092449    5.508422   -1.400004
     70          1           0        9.392654    3.724733   -1.076925
     71          1           0        3.734918   -0.406575   -0.439178
     72          1           0        1.413764   -0.979800   -0.482094
     73          1           0        0.082118   -5.408663    0.622755
     74          1           0       -2.326673   -6.219817    1.341206
     75          1           0       -2.803366   -6.353436   -0.348561
     76          1           0       -3.754757   -5.356365    0.754493
     77          1           0       -4.256931   -4.487894   -1.614906
     78          1           0       -6.527019   -3.678286   -2.126191
     79          1           0       -3.397248   -0.916793    0.588840
     80          1           0       -8.669310   -1.903308   -2.809266
     81          1           0       -9.514439   -1.304965   -1.361471
     82          1           0       -8.656745   -2.845031   -1.306219
     83          1           0       -7.951805    4.829499    2.318867
     84          1           0       -6.822509    5.824297    4.244431
     85          1           0       -4.749911    4.826352    5.159705
     86          1           0       -3.811723    2.761687    4.168884
     87          1           0       -4.598775   -0.540911    2.394537
     88          1           0       -4.210287    0.588970    3.688162
     89          1           0       -3.174548    0.515860    2.251874
     90          1           0       -7.549779    4.985612    0.174886
     91          1           0       -9.266547    5.229593    0.569169
     92          1           0       -8.706522    5.332766   -1.110468
     93          1           0      -10.866518    4.650342   -1.763883
     94          1           0      -12.096272    3.508388   -3.588056
     95          1           0      -11.516694    1.186325   -4.219928
     96          1           0       -9.760401   -0.033771   -3.050741
     97          1           0        6.935361   -3.733875    0.688510
 ---------------------------------------------------------------------

 SCF Done:  E(RBHandHLYP) =  -3620.47235684     A.U. after   21 cycles

 Excitation energies and oscillator strengths:

 Excited State   1:      Singlet-A      2.4352 eV  509.13 nm  f=1.2222  <S**2>=0.000
     221 -> 224        0.47423
     223 -> 224        0.49809
 This state for optimization and/or second-order correction.
 Total Energy, E(TD-HF/TD-DFT) =  -3620.38286496
 Copying the excited state density for this state as the 1-particle RhoCI density.

 Excited State   2:      Singlet-A      3.1767 eV  390.30 nm  f=0.0487  <S**2>=0.000
     220 -> 224        0.13217
     221 -> 224       -0.36548
     222 -> 224        0.43918
     223 -> 224        0.37305

 Excited State   3:      Singlet-A      3.2166 eV  385.46 nm  f=0.0562  <S**2>=0.000
     220 -> 224       -0.16627
     221 -> 224        0.29905
     222 -> 224        0.54202
     223 -> 224       -0.27548

 Excited State   4:      Singlet-A      3.5344 eV  350.79 nm  f=0.6684  <S**2>=0.000
     219 -> 224       -0.19798
     220 -> 224        0.32296
     220 -> 225       -0.14904
     221 -> 224        0.10132
     221 -> 225        0.39222
     223 -> 224       -0.10740
     223 -> 225        0.30705
     223 -> 226       -0.10072

 Excited State   5:      Singlet-A      3.6757 eV  337.31 nm  f=0.2364  <S**2>=0.000
     219 -> 224       -0.20749
     220 -> 224        0.47760
     220 -> 225        0.12768
     221 -> 224        0.12342
     221 -> 225       -0.27195
     221 -> 226        0.10515
     223 -> 224       -0.11471
     223 -> 225       -0.23175
     223 -> 226        0.11500

 Excited State   6:      Singlet-A      3.9838 eV  311.22 nm  f=0.0724  <S**2>=0.000
     221 -> 227       -0.17313
     222 -> 226       -0.12985
     222 -> 228        0.31482
     222 -> 229        0.14729
     223 -> 226       -0.24505
     223 -> 227        0.43972

 Excited State   7:      Singlet-A      4.0748 eV  304.27 nm  f=0.0896  <S**2>=0.000
     221 -> 228        0.11629
     221 -> 229        0.11409
     222 -> 226       -0.18561
     222 -> 227        0.35589
     222 -> 229        0.13801
     223 -> 226        0.28846
     223 -> 228       -0.32430

 Excited State   8:      Singlet-A      4.1730 eV  297.11 nm  f=0.5274  <S**2>=0.000
     212 -> 224       -0.12223
     214 -> 224        0.11552
     217 -> 224        0.10307
     221 -> 226       -0.29641
     222 -> 227        0.30407
     222 -> 228       -0.22813
     223 -> 226       -0.27573
     223 -> 229       -0.18483
     223 -> 230       -0.10677

 Excited State   9:      Singlet-A      4.2234 eV  293.56 nm  f=0.0533  <S**2>=0.000
     215 -> 224        0.47955
     217 -> 224        0.25914
     219 -> 224       -0.25890
     220 -> 224       -0.16536
     221 -> 226        0.10773
     223 -> 226        0.14284

 Excited State  10:      Singlet-A      4.2902 eV  288.99 nm  f=0.0092  <S**2>=0.000
     214 -> 224        0.11478
     215 -> 224        0.43562
     217 -> 224       -0.22137
     219 -> 224        0.34362
     220 -> 224        0.19805
     223 -> 225        0.20702

 The electronic state is 1-A.
 Alpha  occ. eigenvalues --  -90.14474 -90.07767 -90.06758 -19.72246 -19.66015
 Alpha  occ. eigenvalues --  -14.84865 -14.84788 -14.84746 -14.84428 -14.84349
 Alpha  occ. eigenvalues --  -10.72974 -10.65966 -10.65885 -10.64124 -10.64097
 Alpha  occ. eigenvalues --  -10.63999 -10.63940 -10.63936 -10.63839 -10.63318
 Alpha  occ. eigenvalues --  -10.63150 -10.63121 -10.62914 -10.62699 -10.62624
 Alpha  occ. eigenvalues --  -10.62576 -10.62491 -10.62322 -10.62312 -10.62231
 Alpha  occ. eigenvalues --  -10.62152 -10.61618 -10.61543 -10.61486 -10.61192
 Alpha  occ. eigenvalues --  -10.61190 -10.61082 -10.60711 -10.60421 -10.60126
 Alpha  occ. eigenvalues --  -10.60112 -10.59805 -10.59594 -10.59507 -10.59475
 Alpha  occ. eigenvalues --  -10.59449 -10.59409 -10.59405 -10.59351 -10.59201
 Alpha  occ. eigenvalues --  -10.59047 -10.58974 -10.58887 -10.58805 -10.58785
 Alpha  occ. eigenvalues --  -10.58749 -10.58748 -10.58543 -10.58490 -10.58276
 Alpha  occ. eigenvalues --  -10.58000 -10.57939  -8.42838  -8.36527  -8.35542
 Alpha  occ. eigenvalues --   -6.28665  -6.28246  -6.28048  -6.22306  -6.22033
 Alpha  occ. eigenvalues --   -6.21724  -6.21316  -6.21046  -6.20756  -1.24691
 Alpha  occ. eigenvalues --   -1.16437  -1.16114  -1.12905  -1.11985  -1.11733
 Alpha  occ. eigenvalues --   -1.03337  -1.02271  -1.01270  -1.01069  -0.99273
 Alpha  occ. eigenvalues --   -0.97625  -0.97220  -0.96778  -0.96698  -0.93252
 Alpha  occ. eigenvalues --   -0.92276  -0.91599  -0.91372  -0.89152  -0.88730
 Alpha  occ. eigenvalues --   -0.88593  -0.88310  -0.87879  -0.86653  -0.86262
 Alpha  occ. eigenvalues --   -0.85936  -0.85768  -0.84598  -0.84212  -0.83745
 Alpha  occ. eigenvalues --   -0.82596  -0.80386  -0.79198  -0.79174  -0.79048
 Alpha  occ. eigenvalues --   -0.78084  -0.76555  -0.75629  -0.73305  -0.72980
 Alpha  occ. eigenvalues --   -0.72824  -0.72190  -0.71971  -0.71680  -0.70647
 Alpha  occ. eigenvalues --   -0.69984  -0.68528  -0.68131  -0.67435  -0.66131
 Alpha  occ. eigenvalues --   -0.65709  -0.65501  -0.65269  -0.63762  -0.62847
 Alpha  occ. eigenvalues --   -0.62216  -0.61896  -0.61163  -0.59903  -0.59820
 Alpha  occ. eigenvalues --   -0.59516  -0.59450  -0.57808  -0.57168  -0.57018
 Alpha  occ. eigenvalues --   -0.56980  -0.55727  -0.55649  -0.54852  -0.54612
 Alpha  occ. eigenvalues --   -0.54472  -0.54416  -0.53931  -0.53609  -0.53591
 Alpha  occ. eigenvalues --   -0.53329  -0.52939  -0.52626  -0.52257  -0.52007
 Alpha  occ. eigenvalues --   -0.51946  -0.51850  -0.51718  -0.51657  -0.50822
 Alpha  occ. eigenvalues --   -0.50637  -0.50452  -0.50371  -0.50256  -0.49573
 Alpha  occ. eigenvalues --   -0.49313  -0.49103  -0.48450  -0.48114  -0.47565
 Alpha  occ. eigenvalues --   -0.47378  -0.47269  -0.47097  -0.46536  -0.46172
 Alpha  occ. eigenvalues --   -0.46116  -0.45961  -0.45725  -0.45681  -0.45542
 Alpha  occ. eigenvalues --   -0.45446  -0.45299  -0.45002  -0.44877  -0.44784
 Alpha  occ. eigenvalues --   -0.44324  -0.43704  -0.43329  -0.42657  -0.42531
 Alpha  occ. eigenvalues --   -0.42412  -0.41790  -0.41725  -0.41002  -0.40577
 Alpha  occ. eigenvalues --   -0.40469  -0.40333  -0.39806  -0.39455  -0.39164
 Alpha  occ. eigenvalues --   -0.38941  -0.38728  -0.38156  -0.37727  -0.35578
 Alpha  occ. eigenvalues --   -0.35127  -0.34060  -0.33776  -0.33305  -0.33104
 Alpha  occ. eigenvalues --   -0.32202  -0.31885  -0.31325  -0.30105  -0.29324
 Alpha  occ. eigenvalues --   -0.28902  -0.28724  -0.28103  -0.26772  -0.25502
 Alpha  occ. eigenvalues --   -0.22969  -0.22200  -0.21779
 Alpha virt. eigenvalues --   -0.07930  -0.04274  -0.00954   0.00168   0.00438
 Alpha virt. eigenvalues --    0.01010   0.01221   0.02295   0.04045   0.04114
 Alpha virt. eigenvalues --    0.04632   0.04784   0.05275   0.05394   0.05720

 Mulliken charges:
               1
     1  C   -0.220204
     2  C    0.012564
     3  C   -0.500247
     4  C    0.124294
     5  C    0.042474
     6  C   -0.178231
     7  C   -0.039639
     8  C   -0.076856
     9  C   -0.227702
    10  C    0.502498
    11  O   -0.343092
    12  O   -0.353548
    13  C   -0.027551
    14  C   -0.036463
    15  S    0.321579
    16  C   -0.208663
    17  C    0.048674
    18  C    0.160636
    19  N   -0.555148
    20  S    0.585540
    21  N   -0.546339
    22  C    0.156014
    23  C   -0.093023
    24  C   -0.115439
    25  C    0.095233
    26  C   -0.276248
    27  S    0.298127
    28  C    0.012146
    29  C   -0.045047
    30  C   -0.255713
    31  C   -0.281430
    32  C   -0.036805
    33  C   -0.071604
    34  C   -0.087382
    35  C   -0.079365
    36  C   -0.010573
    37  C    0.226383
    38  N   -0.620765
    39  C   -0.172095
    40  C    0.232448
    41  C   -0.058236
    42  C    0.265723
    43  C   -0.088568
    44  C    0.002549
    45  C   -0.078255
    46  C   -0.114919
    47  C   -0.100110
    48  C   -0.101821
    49  C    0.206744
    50  N   -0.627481
    51  C   -0.168851
    52  C    0.261096
    53  C   -0.078267
    54  C    0.015190
    55  C    0.210538
    56  N   -0.619409
    57  C   -0.171521
    58  C   -0.106066
    59  C   -0.098450
    60  C   -0.115642
    61  C   -0.074556
    62  C   -0.007900
    63  H    0.120211
    64  H    0.127973
    65  H    0.126255
    66  H    0.111520
    67  H    0.097794
    68  H    0.250848
    69  H    0.131588
    70  H    0.114691
    71  H    0.112128
    72  H    0.111212
    73  H    0.129355
    74  H    0.117675
    75  H    0.124615
    76  H    0.129400
    77  H    0.107080
    78  H    0.105673
    79  H    0.122948
    80  H    0.130265
    81  H    0.148317
    82  H    0.127997
    83  H    0.105097
    84  H    0.093944
    85  H    0.097247
    86  H    0.105146
    87  H    0.147559
    88  H    0.125806
    89  H    0.131461
    90  H    0.150130
    91  H    0.126547
    92  H    0.127717
    93  H    0.105003
    94  H    0.097238
    95  H    0.092956
    96  H    0.101352
    97  H    0.134024
 Sum of Mulliken charges =  -0.00000

 Dipole moment (field-independent basis, Debye):
    X=             -4.8316    Y=             -5.4073    Z=              2.6654  Tot=              7.7258
 Quadrupole moment (field-independent basis, Debye-Ang):
   XX=           -383.6143   YY=           -382.4600   ZZ=           -381.9505
   XY=            -70.6171   XZ=             45.2659   YZ=             15.0444

 Normal termination of Gaussian 16 at Mon Jul 19 16:48:48 2021.
