 Gaussian 16, Revision B.01,
 Gaussian 16:  ES64L-G16RevB.01 20-Dec-2017

 --------------------------------------
 #N TD(NStates=10)CAM-B3lYP/6-311G(d,p)
 --------------------------------------

 ----
 Name
 ----
 Symbolic Z-matrix:
 Charge =  0 Multiplicity = 1

                         Standard orientation:
 ---------------------------------------------------------------------
 Center     Atomic      Atomic             Coordinates (Angstroms)
 Number     Number       Type             X           Y           Z
 ---------------------------------------------------------------------
      1          6           0        7.546561   -1.280310    2.683097
      2          6           0        8.592842   -0.800254    1.678459
      3          6           0        7.982348   -0.250768    0.559527
      4          6           0        6.560027   -0.312166    0.721275
      5         16           0        5.139569    0.126570   -0.154442
      6          6           0        4.110677   -0.497597    1.154165
      7          6           0        4.886064   -1.009111    2.184047
      8          6           0        6.267212   -0.903068    1.938473
      9          1           0        4.434723   -1.436566    3.066072
     10          6           0        2.664740   -0.421969    1.036834
     11          6           0        2.033004    0.180668   -0.038723
     12          6           0        0.630861    0.259925   -0.188264
     13          6           0       -0.271476   -0.248550    0.727084
     14          6           0        0.325305   -0.886039    1.870252
     15          7           0       -0.341718   -1.432283    2.889414
     16         16           0        0.764611   -2.009353    3.945696
     17          7           0        2.137532   -1.584801    3.156203
     18          6           0        1.773595   -0.971653    2.029089
     19          6           0       -1.727905   -0.129793    0.534743
     20          6           0       -2.627700   -1.127090    0.949407
     21          6           0       -3.989468   -1.015240    0.716343
     22          6           0       -4.520458    0.105162    0.056672
     23          6           0       -3.630876    1.111584   -0.353867
     24          6           0       -2.271351    0.992571   -0.114460
     25          1           0       -1.618590    1.799849   -0.426000
     26          1           0       -4.012512    1.990779   -0.857038
     27          7           0       -5.905965    0.218076   -0.183178
     28          6           0       -6.541714    1.490986   -0.162595
     29          6           0       -7.452277    1.849593   -1.164607
     30          6           0       -8.080003    3.087880   -1.142777
     31          6           0       -7.814461    4.022365   -0.129081
     32          6           0       -6.902809    3.649608    0.871239
     33          6           0       -6.281857    2.406948    0.863770
     34          1           0       -5.595470    2.138317    1.657746
     35          1           0       -6.698462    4.333679    1.687379
     36          6           0       -8.431479    5.372355   -0.123591
     37          6           0       -7.655440    6.504999    0.184186
     38          6           0       -8.175336    7.787662    0.179345
     39          6           0       -9.520917    7.991698   -0.146516
     40          6           0      -10.322163    6.890794   -0.449187
     41          6           0       -9.781010    5.603663   -0.436548
     42          8           0      -10.630860    4.567494   -0.772508
     43          6           0      -11.174607    3.854858    0.341958
     44          1           0      -11.768846    4.521873    0.977035
     45          1           0      -11.818644    3.079567   -0.072520
     46          1           0      -10.385781    3.390238    0.941552
     47          1           0      -11.366991    6.989955   -0.708897
     48          8           0       -9.950727    9.284025   -0.144623
     49          6           0      -11.303899    9.547345   -0.489284
     50          1           0      -11.419341   10.628514   -0.434744
     51          1           0      -11.531966    9.209206   -1.506079
     52          1           0      -11.997205    9.073730    0.214791
     53          1           0       -7.557214    8.648199    0.402949
     54          1           0       -6.602998    6.368378    0.405019
     55          1           0       -8.776499    3.344012   -1.929784
     56          1           0       -7.660802    1.152742   -1.967442
     57          6           0       -6.684190   -0.938764   -0.477466
     58          6           0       -7.924033   -1.137885    0.141914
     59          6           0       -8.692136   -2.255911   -0.153082
     60          6           0       -8.251760   -3.224345   -1.068286
     61          6           0       -7.002848   -3.017724   -1.673254
     62          6           0       -6.234035   -1.894297   -1.394612
     63          1           0       -5.276141   -1.759105   -1.882366
     64          1           0       -6.622935   -3.753594   -2.372990
     65          6           0       -9.074355   -4.404066   -1.438322
     66          6           0       -9.741533   -5.204812   -0.488005
     67          6           0      -10.490422   -6.320690   -0.879745
     68          6           0      -10.589114   -6.656541   -2.233187
     69          6           0       -9.938791   -5.878317   -3.191525
     70          6           0       -9.200749   -4.778553   -2.783035
     71          1           0       -8.714408   -4.166883   -3.534234
     72          1           0      -10.032331   -6.144342   -4.236502
     73          8           0      -11.299441   -7.720324   -2.704903
     74          6           0      -11.985477   -8.550716   -1.780708
     75          1           0      -12.745332   -7.991399   -1.222891
     76          1           0      -12.473802   -9.319260   -2.377619
     77          1           0      -11.294191   -9.027627   -1.076442
     78          1           0      -10.986088   -6.922385   -0.134488
     79          8           0       -9.602716   -4.840751    0.820595
     80          6           0      -10.183472   -5.647349    1.833286
     81          1           0      -11.275635   -5.680701    1.748293
     82          1           0       -9.784755   -6.667732    1.813423
     83          1           0       -9.912805   -5.176009    2.776807
     84          1           0       -9.646101   -2.386068    0.339831
     85          1           0       -8.285881   -0.405206    0.853395
     86          1           0       -4.654626   -1.802552    1.047713
     87          1           0       -2.255914   -1.998856    1.468874
     88          1           0        0.252500    0.727024   -1.089395
     89          1           0        2.635999    0.614377   -0.828430
     90         16           0        9.123789    0.305543   -0.605419
     91          6           0       10.469575   -0.212829    0.424075
     92          6           0        9.994005   -0.777274    1.599899
     93          1           0       10.653402   -1.174492    2.359953
     94          6           0       11.846087   -0.026495    0.002967
     95          6           0       12.911052   -0.188287    0.914530
     96          6           0       14.220700   -0.019765    0.513571
     97          6           0       14.553611    0.327482   -0.814183
     98          6           0       13.488229    0.495374   -1.724850
     99          6           0       12.178791    0.320031   -1.325168
    100          1           0       11.391855    0.441040   -2.060468
    101          1           0       13.683793    0.758683   -2.755101
    102          6           0       15.951965    0.484358   -1.128773
    103          6           0       16.598111    0.801101   -2.284978
    104          6           0       15.969472    1.065192   -3.530449
    105          7           0       15.544201    1.294906   -4.583914
    106          6           0       18.103574    0.878389   -2.242749
    107          8           0       18.738018    0.672509   -1.243038
    108          8           0       18.723307    1.195286   -3.399137
    109          1           0       18.087752    1.332222   -4.115879
    110          1           0       16.637229    0.323158   -0.300363
    111          1           0       15.018492   -0.148074    1.237166
    112          1           0       12.704703   -0.430789    1.949174
    113          6           0        7.637268   -2.804247    2.911604
    114          1           0        7.558605   -3.347206    1.967676
    115          1           0        8.589316   -3.066421    3.381452
    116          1           0        6.831512   -3.140233    3.569513
    117          6           0        7.660911   -0.524229    4.024198
    118          1           0        7.602613    0.555306    3.871714
    119          1           0        6.853024   -0.819794    4.698782
    120          1           0        8.611489   -0.752222    4.514437
 ---------------------------------------------------------------------

 SCF Done:  E(RCAM-B3LYP) =  -4216.23939418     A.U. after   17 cycles

 Excitation energies and oscillator strengths:

 Excited State   1:      Singlet-A      2.3971 eV  517.24 nm  f=2.0300  <S**2>=0.000
     264 -> 270        0.12675
     265 -> 270        0.10307
     267 -> 269       -0.36816
     268 -> 269        0.47356
     268 -> 270        0.29011
 This state for optimization and/or second-order correction.
 Total Energy, E(TD-HF/TD-DFT) =  -4216.15130406
 Copying the excited state density for this state as the 1-particle RhoCI density.

 Excited State   2:      Singlet-A      2.9479 eV  420.59 nm  f=0.3475  <S**2>=0.000
     264 -> 269        0.13840
     265 -> 269        0.16774
     267 -> 269        0.38823
     267 -> 270       -0.18304
     267 -> 271       -0.10756
     268 -> 270        0.46221
     268 -> 271        0.13605

 Excited State   3:      Singlet-A      3.2489 eV  381.62 nm  f=0.0376  <S**2>=0.000
     267 -> 269        0.29246
     267 -> 270        0.49416
     268 -> 269        0.34367

 Excited State   4:      Singlet-A      3.7698 eV  328.89 nm  f=0.0570  <S**2>=0.000
     264 -> 269       -0.20059
     265 -> 269       -0.11265
     265 -> 270        0.12451
     267 -> 269       -0.18145
     267 -> 270        0.33620
     268 -> 269       -0.31500
     268 -> 270        0.32438
     268 -> 271        0.18538

 Excited State   5:      Singlet-A      3.8467 eV  322.31 nm  f=0.1853  <S**2>=0.000
     264 -> 270       -0.14820
     267 -> 271        0.40279
     268 -> 269       -0.16037
     268 -> 270        0.21603
     268 -> 271       -0.37516
     268 -> 272        0.17832

 Excited State   6:      Singlet-A      4.0312 eV  307.56 nm  f=0.0292  <S**2>=0.000
     259 -> 270        0.16354
     264 -> 269        0.37903
     264 -> 270        0.10836
     265 -> 269        0.34659
     265 -> 270        0.18816
     266 -> 269        0.13018
     267 -> 269       -0.17258
     267 -> 270        0.16601
     268 -> 269       -0.16511

 Excited State   7:      Singlet-A      4.0909 eV  303.07 nm  f=0.8093  <S**2>=0.000
     267 -> 272        0.14209
     267 -> 273        0.23630
     268 -> 272        0.35314
     268 -> 273        0.46522

 Excited State   8:      Singlet-A      4.1750 eV  296.97 nm  f=0.5554  <S**2>=0.000
     267 -> 271       -0.20914
     268 -> 272        0.42102
     268 -> 273       -0.32257
     268 -> 275        0.13805
     268 -> 276       -0.12507

 Excited State   9:      Singlet-A      4.2414 eV  292.32 nm  f=0.0940  <S**2>=0.000
     267 -> 275        0.19841
     268 -> 273        0.10657
     268 -> 275        0.53030
     268 -> 276        0.20433

 Excited State  10:      Singlet-A      4.3489 eV  285.10 nm  f=0.0901  <S**2>=0.000
     259 -> 269        0.24757
     263 -> 269       -0.10041
     264 -> 269       -0.18447
     264 -> 270        0.15247
     265 -> 270        0.16265
     266 -> 269        0.40294
     266 -> 270        0.25366
     267 -> 270       -0.14674
     268 -> 271       -0.10260

 The electronic state is 1-A.
 Alpha  occ. eigenvalues --  -89.01520 -88.96554 -88.95903 -19.24272 -19.22672
 Alpha  occ. eigenvalues --  -19.22490 -19.22373 -19.20562 -19.18164 -14.42935
 Alpha  occ. eigenvalues --  -14.42882 -14.41461 -14.40702 -10.39435 -10.31666
 Alpha  occ. eigenvalues --  -10.31388 -10.31324 -10.31201 -10.31142 -10.30744
 Alpha  occ. eigenvalues --  -10.30668 -10.30647 -10.30592 -10.30540 -10.30390
 Alpha  occ. eigenvalues --  -10.30090 -10.30050 -10.29982 -10.29766 -10.29733
 Alpha  occ. eigenvalues --  -10.29440 -10.29407 -10.29068 -10.28919 -10.28907
 Alpha  occ. eigenvalues --  -10.28887 -10.28694 -10.28507 -10.28022 -10.27889
 Alpha  occ. eigenvalues --  -10.27617 -10.27265 -10.27219 -10.27167 -10.27080
 Alpha  occ. eigenvalues --  -10.26612 -10.26546 -10.26188 -10.25935 -10.25852
 Alpha  occ. eigenvalues --  -10.25655 -10.25418 -10.25298 -10.25245 -10.25126
 Alpha  occ. eigenvalues --  -10.25004 -10.24946 -10.24906 -10.24889 -10.24837
 Alpha  occ. eigenvalues --  -10.24834 -10.24747 -10.24607 -10.24568 -10.24520
 Alpha  occ. eigenvalues --  -10.24482 -10.24475 -10.24417 -10.24395 -10.24381
 Alpha  occ. eigenvalues --  -10.24333 -10.24276 -10.24114 -10.23589  -8.10049
 Alpha  occ. eigenvalues --   -8.05426  -8.04782  -6.06564  -6.05964  -6.05730
 Alpha  occ. eigenvalues --   -6.01830  -6.01443  -6.01195  -6.01067  -6.00807
 Alpha  occ. eigenvalues --   -6.00408  -1.19538  -1.15577  -1.15295  -1.15228
 Alpha  occ. eigenvalues --   -1.13392  -1.11704  -1.11171  -1.05236  -1.01669
 Alpha  occ. eigenvalues --   -1.01537  -0.98953  -0.98407  -0.97285  -0.96088
 Alpha  occ. eigenvalues --   -0.95355  -0.95064  -0.94126  -0.93472  -0.93224
 Alpha  occ. eigenvalues --   -0.92350  -0.91786  -0.88398  -0.87697  -0.86848
 Alpha  occ. eigenvalues --   -0.86144  -0.85904  -0.85573  -0.84998  -0.84150
 Alpha  occ. eigenvalues --   -0.83910  -0.83427  -0.83111  -0.83071  -0.82864
 Alpha  occ. eigenvalues --   -0.82354  -0.82219  -0.81804  -0.80547  -0.79981
 Alpha  occ. eigenvalues --   -0.79053  -0.78233  -0.78221  -0.76591  -0.76420
 Alpha  occ. eigenvalues --   -0.75397  -0.73709  -0.72011  -0.71732  -0.71316
 Alpha  occ. eigenvalues --   -0.70733  -0.70665  -0.70206  -0.69656  -0.69424
 Alpha  occ. eigenvalues --   -0.69145  -0.68420  -0.68020  -0.67515  -0.67304
 Alpha  occ. eigenvalues --   -0.66860  -0.66168  -0.65856  -0.65007  -0.64417
 Alpha  occ. eigenvalues --   -0.63087  -0.62756  -0.62320  -0.61789  -0.61381
 Alpha  occ. eigenvalues --   -0.61067  -0.60764  -0.60548  -0.59251  -0.58603
 Alpha  occ. eigenvalues --   -0.58229  -0.57855  -0.57717  -0.56930  -0.56640
 Alpha  occ. eigenvalues --   -0.56516  -0.55916  -0.55612  -0.55335  -0.55264
 Alpha  occ. eigenvalues --   -0.55068  -0.54697  -0.54586  -0.54441  -0.54033
 Alpha  occ. eigenvalues --   -0.53732  -0.53727  -0.53109  -0.53011  -0.52778
 Alpha  occ. eigenvalues --   -0.52539  -0.52478  -0.52385  -0.52147  -0.52041
 Alpha  occ. eigenvalues --   -0.51753  -0.51444  -0.51357  -0.50988  -0.50866
 Alpha  occ. eigenvalues --   -0.50726  -0.50346  -0.50010  -0.49741  -0.49212
 Alpha  occ. eigenvalues --   -0.49062  -0.48906  -0.48889  -0.48816  -0.48617
 Alpha  occ. eigenvalues --   -0.48397  -0.47967  -0.47799  -0.47468  -0.47314
 Alpha  occ. eigenvalues --   -0.47112  -0.47027  -0.46292  -0.46250  -0.46145
 Alpha  occ. eigenvalues --   -0.46012  -0.45666  -0.45600  -0.45472  -0.45285
 Alpha  occ. eigenvalues --   -0.45191  -0.45051  -0.44768  -0.44392  -0.44245
 Alpha  occ. eigenvalues --   -0.44184  -0.43933  -0.43680  -0.43275  -0.43148
 Alpha  occ. eigenvalues --   -0.43067  -0.42770  -0.42592  -0.42340  -0.41871
 Alpha  occ. eigenvalues --   -0.41765  -0.41657  -0.41638  -0.41114  -0.40979
 Alpha  occ. eigenvalues --   -0.40751  -0.40285  -0.40211  -0.40050  -0.39994
 Alpha  occ. eigenvalues --   -0.39946  -0.39574  -0.38850  -0.38783  -0.38723
 Alpha  occ. eigenvalues --   -0.37643  -0.37224  -0.36634  -0.35490  -0.35468
 Alpha  occ. eigenvalues --   -0.34230  -0.34020  -0.33238  -0.32823  -0.32536
 Alpha  occ. eigenvalues --   -0.32489  -0.31856  -0.31826  -0.31456  -0.30840
 Alpha  occ. eigenvalues --   -0.30694  -0.30508  -0.29990  -0.28809  -0.27183
 Alpha  occ. eigenvalues --   -0.26114  -0.24151  -0.22517
 Alpha virt. eigenvalues --   -0.07732  -0.06151  -0.02109   0.00680   0.00916
 Alpha virt. eigenvalues --    0.01437   0.02141   0.02257   0.03537   0.03646
 Alpha virt. eigenvalues --    0.03901   0.04383   0.04467   0.04666   0.04693

 Mulliken charges:
               1
     1  C   -0.262047
     2  C   -0.006440
     3  C   -0.184032
     4  C   -0.178281
     5  S    0.306562
     6  C   -0.293369
     7  C    0.042966
     8  C   -0.006542
     9  H    0.132164
    10  C    0.077915
    11  C   -0.100804
    12  C   -0.079592
    13  C   -0.004187
    14  C    0.089134
    15  N   -0.459478
    16  S    0.557583
    17  N   -0.495896
    18  C    0.124428
    19  C   -0.044557
    20  C   -0.032004
    21  C   -0.111862
    22  C    0.146021
    23  C   -0.109611
    24  C   -0.072425
    25  H    0.104139
    26  H    0.125281
    27  N   -0.496065
    28  C    0.082642
    29  C   -0.083718
    30  C   -0.047663
    31  C   -0.115920
    32  C   -0.076612
    33  C   -0.079763
    34  H    0.118715
    35  H    0.105545
    36  C   -0.035581
    37  C   -0.061095
    38  C   -0.095219
    39  C    0.172052
    40  C   -0.101923
    41  C    0.101811
    42  O   -0.378598
    43  C   -0.118676
    44  H    0.099940
    45  H    0.121196
    46  H    0.119788
    47  H    0.112806
    48  O   -0.342254
    49  C   -0.149063
    50  H    0.135506
    51  H    0.118599
    52  H    0.114313
    53  H    0.110363
    54  H    0.107739
    55  H    0.118208
    56  H    0.118388
    57  C    0.077205
    58  C   -0.085548
    59  C   -0.030664
    60  C   -0.037739
    61  C   -0.073932
    62  C   -0.080466
    63  H    0.116082
    64  H    0.106409
    65  C   -0.109683
    66  C    0.193217
    67  C   -0.186927
    68  C    0.165860
    69  C   -0.098919
    70  C   -0.064305
    71  H    0.105414
    72  H    0.107677
    73  O   -0.342609
    74  C   -0.149612
    75  H    0.113470
    76  H    0.136943
    77  H    0.113516
    78  H    0.125350
    79  O   -0.352294
    80  C   -0.148734
    81  H    0.112887
    82  H    0.115745
    83  H    0.137751
    84  H    0.101851
    85  H    0.112250
    86  H    0.126158
    87  H    0.115064
    88  H    0.110833
    89  H    0.113368
    90  S    0.322705
    91  C   -0.309704
    92  C    0.033665
    93  H    0.105202
    94  C    0.021500
    95  C   -0.043333
    96  C   -0.060084
    97  C   -0.113476
    98  C   -0.047187
    99  C   -0.099271
   100  H    0.119987
   101  H    0.137174
   102  C    0.063045
   103  C   -0.229762
   104  C   -0.023168
   105  N   -0.198889
   106  C    0.452384
   107  O   -0.306257
   108  O   -0.295678
   109  H    0.258618
   110  H    0.143277
   111  H    0.111652
   112  H    0.106375
   113  C   -0.222253
   114  H    0.126356
   115  H    0.110755
   116  H    0.118097
   117  C   -0.222229
   118  H    0.126162
   119  H    0.118069
   120  H    0.110127
 Sum of Mulliken charges =  -0.00000

 Dipole moment (field-independent basis, Debye):
    X=            -11.5802    Y=             -3.2335    Z=              5.8180  Tot=             13.3568
 Quadrupole moment (field-independent basis, Debye-Ang):
   XX=           -538.6496   YY=           -411.0755   ZZ=           -446.6775
   XY=             -1.8055   XZ=             24.7734   YZ=            -15.0555

 Normal termination of Gaussian 16 at Fri Jun  4 20:24:11 2021.
