 Gaussian 09, Revision D.01,
 Gaussian 09:  ES64L-G09RevD.01 24-Apr-2013

 ----------------------------------------------------------
 #N TD(NStates=1,root=1) B3lYP/6-311G(d,p) OPT Guess=Sparse
 ----------------------------------------------------------

 ----
 name
 ----
 Symbolic Z-matrix:
 Charge =  0 Multiplicity = 1

 SCF Done:  E(RB3LYP) =  -3582.92583623     A.U. after   17 cycles
 SCF Done:  E(RB3LYP) =  -3582.92426938     A.U. after   13 cycles
 SCF Done:  E(RB3LYP) =  -3582.92329414     A.U. after   13 cycles
 SCF Done:  E(RB3LYP) =  -3582.92184432     A.U. after   13 cycles
 SCF Done:  E(RB3LYP) =  -3582.92302986     A.U. after   12 cycles
 SCF Done:  E(RB3LYP) =  -3582.92334025     A.U. after   13 cycles
 SCF Done:  E(RB3LYP) =  -3582.92348100     A.U. after   11 cycles
 SCF Done:  E(RB3LYP) =  -3582.92341969     A.U. after   12 cycles
 SCF Done:  E(RB3LYP) =  -3582.92333564     A.U. after   12 cycles
 SCF Done:  E(RB3LYP) =  -3582.92331357     A.U. after   10 cycles
 SCF Done:  E(RB3LYP) =  -3582.92328647     A.U. after   10 cycles
 SCF Done:  E(RB3LYP) =  -3582.92332209     A.U. after   10 cycles
 SCF Done:  E(RB3LYP) =  -3582.92334134     A.U. after   10 cycles
 SCF Done:  E(RB3LYP) =  -3582.92334705     A.U. after    8 cycles
 SCF Done:  E(RB3LYP) =  -3582.92334416     A.U. after    7 cycles
 SCF Done:  E(RB3LYP) =  -3582.92334069     A.U. after    7 cycles
 SCF Done:  E(RB3LYP) =  -3582.92333968     A.U. after    7 cycles
 SCF Done:  E(RB3LYP) =  -3582.92333947     A.U. after    7 cycles
 SCF Done:  E(RB3LYP) =  -3582.92334019     A.U. after    6 cycles
 SCF Done:  E(RB3LYP) =  -3582.92334036     A.U. after    6 cycles

 Excitation energies and oscillator strengths:

 Excited State   1:      Singlet-A      1.7652 eV  702.40 nm  f=1.4312  <S**2>=0.000
     192 -> 193        0.70158
 This state for optimization and/or second-order correction.
 Total Energy, E(TD-HF/TD-KS) =  -3582.85847197
 Copying the excited state density for this state as the 1-particle RhoCI density.

 Optimization completed.
    -- Stationary point found.

                         Standard orientation:
 ---------------------------------------------------------------------
 Center     Atomic      Atomic             Coordinates (Angstroms)
 Number     Number       Type             X           Y           Z
 ---------------------------------------------------------------------
      1          6           0       -0.015255   -3.027011    0.242315
      2          6           0        1.168313   -2.061782    0.159237
      3          6           0        0.732229   -0.747373    0.051574
      4          6           0       -0.695184   -0.731793    0.054999
      5         16           0       -1.962794    0.432170   -0.034127
      6          6           0       -3.188675   -0.851825    0.082227
      7          6           0       -4.599430   -0.535066    0.069260
      8          6           0       -5.074004    0.770196   -0.198623
      9          6           0       -6.423278    1.066771   -0.210033
     10          6           0       -7.377085    0.066727    0.044337
     11          7           0       -8.758707    0.363383    0.032996
     12          6           0       -9.228656    1.578855    0.590201
     13          6           0      -10.245459    2.305491   -0.050183
     14          1           0      -10.660273    1.939106   -0.980676
     15          6           0      -10.701152    3.495735    0.501202
     16          6           0      -10.152125    3.981806    1.688119
     17          6           0       -9.139966    3.262737    2.324263
     18          6           0       -8.678817    2.068481    1.786185
     19          1           0       -7.905116    1.502847    2.289787
     20          1           0       -8.714939    3.627635    3.251928
     21          1           0      -10.508915    4.912281    2.112947
     22          1           0      -11.479697    4.053722   -0.005688
     23          6           0       -9.674448   -0.554244   -0.540550
     24          6           0       -9.352888   -1.221466   -1.733498
     25          6           0      -10.250774   -2.124467   -2.287784
     26          6           0      -11.476973   -2.372690   -1.670668
     27          6           0      -11.799100   -1.708934   -0.486594
     28          6           0      -10.907869   -0.807653    0.080927
     29          1           0      -11.152155   -0.307330    1.009557
     30          1           0      -12.744809   -1.903874    0.005439
     31          1           0      -12.174777   -3.076390   -2.108248
     32          1           0       -9.996870   -2.627075   -3.213709
     33          1           0       -8.408948   -1.016117   -2.222330
     34          6           0       -6.925165   -1.238500    0.313599
     35          6           0       -5.575773   -1.527409    0.327603
     36          1           0       -5.265062   -2.535769    0.568733
     37          1           0       -7.644656   -2.017362    0.533979
     38          1           0       -6.750463    2.073717   -0.437162
     39          1           0       -4.369165    1.561507   -0.423983
     40          6           0       -2.574717   -2.097695    0.182412
     41          6           0       -1.177123   -2.036369    0.167613
     42          1           0       -3.139809   -3.018092    0.252212
     43         16           0        2.046136    0.381289   -0.040459
     44          6           0        3.220232   -0.952052    0.062649
     45          6           0        2.563841   -2.186379    0.165716
     46          1           0        3.104724   -3.120179    0.239152
     47          6           0        4.619965   -0.710648    0.051244
     48         16           0        5.735177   -2.053658    0.267293
     49          6           0        7.180836   -1.025710    0.149546
     50          6           0        6.765781    0.303287   -0.026276
     51          6           0        5.352051    0.485678   -0.105705
     52          6           0        5.001381    1.833296   -0.397566
     53          6           0        6.098299    2.636928   -0.554365
     54         16           0        7.624391    1.791827   -0.325099
     55          6           0        6.035068    4.072695   -0.856537
     56          8           0        5.009362    4.699734   -1.000803
     57          8           0        7.269219    4.614126   -0.958287
     58          6           0        7.315540    6.021898   -1.238474
     59          1           0        6.836541    6.237066   -2.195224
     60          1           0        6.809474    6.584171   -0.452028
     61          1           0        8.372302    6.276245   -1.271993
     62          1           0        4.001431    2.226266   -0.504415
     63          6           0        8.430451   -1.681666    0.170309
     64          6           0        9.708648   -1.208709    0.424565
     65          6           0        9.961803    0.048493    1.027587
     66          7           0       10.163256    1.063556    1.547933
     67          6           0       10.905604   -2.077045    0.260782
     68          8           0       11.959199   -1.888592    0.807398
     69          8           0       10.750178   -3.161122   -0.564359
     70          1           0        9.977644   -3.032943   -1.126289
     71          1           0        8.364930   -2.753918   -0.003780
     72          6           0       -0.024393   -4.004489   -0.952010
     73          1           0       -0.028682   -3.463347   -1.900179
     74          1           0        0.860856   -4.645930   -0.927849
     75          1           0       -0.908576   -4.647446   -0.917119
     76          6           0       -0.012579   -3.801485    1.577065
     77          1           0       -0.008518   -3.116339    2.426974
     78          1           0       -0.896551   -4.441117    1.652840
     79          1           0        0.873093   -4.438799    1.647263
 ---------------------------------------------------------------------

 The electronic state is 1-A.
 Alpha  occ. eigenvalues --  -88.90849 -88.90722 -88.89976 -88.89577 -19.17545
 Alpha  occ. eigenvalues --  -19.16223 -19.11507 -19.10051 -14.36158 -14.30379
 Alpha  occ. eigenvalues --  -10.31476 -10.30544 -10.25899 -10.24398 -10.24234
 Alpha  occ. eigenvalues --  -10.24168 -10.24078 -10.23596 -10.23533 -10.23474
 Alpha  occ. eigenvalues --  -10.23090 -10.23067 -10.23007 -10.22976 -10.22960
 Alpha  occ. eigenvalues --  -10.22931 -10.22666 -10.21879 -10.21348 -10.20940
 Alpha  occ. eigenvalues --  -10.20902 -10.20668 -10.20481 -10.20291 -10.20035
 Alpha  occ. eigenvalues --  -10.19705 -10.19647 -10.19169 -10.19129 -10.18802
 Alpha  occ. eigenvalues --  -10.18766 -10.18718 -10.18697 -10.18630 -10.18621
 Alpha  occ. eigenvalues --  -10.18543 -10.18506 -10.18472 -10.18436 -10.18241
 Alpha  occ. eigenvalues --  -10.18153  -7.99414  -7.99326  -7.98575  -7.98131
 Alpha  occ. eigenvalues --   -5.95733  -5.95652  -5.95366  -5.95267  -5.94957
 Alpha  occ. eigenvalues --   -5.94882  -5.94865  -5.94517  -5.94462  -5.94135
 Alpha  occ. eigenvalues --   -5.94067  -5.93655  -1.11778  -1.10069  -1.03004
 Alpha  occ. eigenvalues --   -1.02147  -0.98796  -0.94412  -0.93571  -0.90586
 Alpha  occ. eigenvalues --   -0.90373  -0.88207  -0.87585  -0.87240  -0.85924
 Alpha  occ. eigenvalues --   -0.85064  -0.83876  -0.80811  -0.79431  -0.78004
 Alpha  occ. eigenvalues --   -0.77859  -0.77430  -0.76853  -0.76346  -0.76241
 Alpha  occ. eigenvalues --   -0.76062  -0.75489  -0.74725  -0.73440  -0.72961
 Alpha  occ. eigenvalues --   -0.71424  -0.71051  -0.67990  -0.65633  -0.64952
 Alpha  occ. eigenvalues --   -0.64720  -0.63994  -0.62709  -0.62530  -0.62450
 Alpha  occ. eigenvalues --   -0.61768  -0.61413  -0.59399  -0.58655  -0.57441
 Alpha  occ. eigenvalues --   -0.57356  -0.56712  -0.56563  -0.55806  -0.55394
 Alpha  occ. eigenvalues --   -0.55180  -0.54354  -0.52424  -0.51444  -0.50791
 Alpha  occ. eigenvalues --   -0.50149  -0.49890  -0.49526  -0.49506  -0.48748
 Alpha  occ. eigenvalues --   -0.48624  -0.47556  -0.47300  -0.46955  -0.46646
 Alpha  occ. eigenvalues --   -0.46519  -0.46110  -0.45736  -0.45375  -0.45063
 Alpha  occ. eigenvalues --   -0.44813  -0.44717  -0.44554  -0.44504  -0.43956
 Alpha  occ. eigenvalues --   -0.43794  -0.43772  -0.43540  -0.43094  -0.42236
 Alpha  occ. eigenvalues --   -0.42053  -0.41778  -0.41739  -0.41296  -0.40803
 Alpha  occ. eigenvalues --   -0.40407  -0.39846  -0.39753  -0.39514  -0.38983
 Alpha  occ. eigenvalues --   -0.38844  -0.38543  -0.38518  -0.38215  -0.37923
 Alpha  occ. eigenvalues --   -0.37701  -0.37387  -0.37300  -0.36910  -0.36690
 Alpha  occ. eigenvalues --   -0.36209  -0.36024  -0.35977  -0.35914  -0.35648
 Alpha  occ. eigenvalues --   -0.35347  -0.34936  -0.34109  -0.33077  -0.32703
 Alpha  occ. eigenvalues --   -0.32065  -0.31747  -0.30548  -0.29387  -0.28623
 Alpha  occ. eigenvalues --   -0.28403  -0.28329  -0.27738  -0.27663  -0.27647
 Alpha  occ. eigenvalues --   -0.27454  -0.26853  -0.26831  -0.26625  -0.23945
 Alpha  occ. eigenvalues --   -0.21118  -0.19114
 Alpha virt. eigenvalues --   -0.12211  -0.08347  -0.07096  -0.04062  -0.03598
 Alpha virt. eigenvalues --   -0.03309  -0.02765  -0.02121  -0.01864  -0.01473
 Alpha virt. eigenvalues --   -0.01338  -0.00135   0.00511   0.01215   0.01533

 Mulliken charges:
               1
     1  C   -0.276840
     2  C    0.020979
     3  C   -0.187173
     4  C   -0.199328
     5  S    0.312930
     6  C   -0.284103
     7  C    0.008885
     8  C   -0.088965
     9  C   -0.088632
    10  C    0.127102
    11  N   -0.492013
    12  C    0.107804
    13  C   -0.084892
    14  H    0.114372
    15  C   -0.090173
    16  C   -0.093591
    17  C   -0.089912
    18  C   -0.088020
    19  H    0.113330
    20  H    0.098563
    21  H    0.096104
    22  H    0.098381
    23  C    0.105350
    24  C   -0.087772
    25  C   -0.090213
    26  C   -0.093820
    27  C   -0.090111
    28  C   -0.083153
    29  H    0.114418
    30  H    0.098435
    31  H    0.095770
    32  H    0.097842
    33  H    0.113017
    34  C   -0.085082
    35  C   -0.035545
    36  H    0.090981
    37  H    0.115381
    38  H    0.117022
    39  H    0.105101
    40  C    0.020359
    41  C    0.031513
    42  H    0.091619
    43  S    0.360557
    44  C   -0.227308
    45  C   -0.009816
    46  H    0.105933
    47  C   -0.196339
    48  S    0.331820
    49  C   -0.322023
    50  C   -0.079082
    51  C    0.031376
    52  C    0.038933
    53  C   -0.364169
    54  S    0.396615
    55  C    0.452850
    56  O   -0.345074
    57  O   -0.333660
    58  C   -0.110749
    59  H    0.123816
    60  H    0.125975
    61  H    0.129682
    62  H    0.132441
    63  C    0.003140
    64  C   -0.179120
    65  C    0.057446
    66  N   -0.222348
    67  C    0.423242
    68  O   -0.294692
    69  O   -0.306453
    70  H    0.238472
    71  H    0.102836
    72  C   -0.210476
    73  H    0.123157
    74  H    0.110267
    75  H    0.111313
    76  C   -0.210115
    77  H    0.124221
    78  H    0.110746
    79  H    0.110671
 Sum of Mulliken charges =   0.00000

 Dipole moment (field-independent basis, Debye):
    X=            -15.1878    Y=             -2.7034    Z=             -3.0530  Tot=             15.7257
 Quadrupole moment (field-independent basis, Debye-Ang):
   XX=           -440.1141   YY=           -293.2917   ZZ=           -324.6460
   XY=             10.8800   XZ=            -36.2324   YZ=              0.8096

 Normal termination of Gaussian 09 at Wed May 26 11:35:18 2021.
