 Gaussian 16, Revision B.01,
 Gaussian 16:  ES64L-G16RevB.01 20-Dec-2017

 ------------------------------------
 #N TD(NStates=10) PBE1PBE/6-31G(d,p)
 ------------------------------------

 ----
 Name
 ----
 Symbolic Z-matrix:
 Charge =  0 Multiplicity = 1

                         Standard orientation:
 ---------------------------------------------------------------------
 Center     Atomic      Atomic             Coordinates (Angstroms)
 Number     Number       Type             X           Y           Z
 ---------------------------------------------------------------------
      1          6           0        7.546561   -1.280310    2.683097
      2          6           0        8.592842   -0.800254    1.678459
      3          6           0        7.982348   -0.250768    0.559527
      4          6           0        6.560027   -0.312166    0.721275
      5         16           0        5.139569    0.126570   -0.154442
      6          6           0        4.110677   -0.497597    1.154165
      7          6           0        4.886064   -1.009111    2.184047
      8          6           0        6.267212   -0.903068    1.938473
      9          1           0        4.434723   -1.436566    3.066072
     10          6           0        2.664740   -0.421969    1.036834
     11          6           0        2.033004    0.180668   -0.038723
     12          6           0        0.630861    0.259925   -0.188264
     13          6           0       -0.271476   -0.248550    0.727084
     14          6           0        0.325305   -0.886039    1.870252
     15          7           0       -0.341718   -1.432283    2.889414
     16         16           0        0.764611   -2.009353    3.945696
     17          7           0        2.137532   -1.584801    3.156203
     18          6           0        1.773595   -0.971653    2.029089
     19          6           0       -1.727905   -0.129793    0.534743
     20          6           0       -2.627700   -1.127090    0.949407
     21          6           0       -3.989468   -1.015240    0.716343
     22          6           0       -4.520458    0.105162    0.056672
     23          6           0       -3.630876    1.111584   -0.353867
     24          6           0       -2.271351    0.992571   -0.114460
     25          1           0       -1.618590    1.799849   -0.426000
     26          1           0       -4.012512    1.990779   -0.857038
     27          7           0       -5.905965    0.218076   -0.183178
     28          6           0       -6.541714    1.490986   -0.162595
     29          6           0       -7.452277    1.849593   -1.164607
     30          6           0       -8.080003    3.087880   -1.142777
     31          6           0       -7.814461    4.022365   -0.129081
     32          6           0       -6.902809    3.649608    0.871239
     33          6           0       -6.281857    2.406948    0.863770
     34          1           0       -5.595470    2.138317    1.657746
     35          1           0       -6.698462    4.333679    1.687379
     36          6           0       -8.431479    5.372355   -0.123591
     37          6           0       -7.655440    6.504999    0.184186
     38          6           0       -8.175336    7.787662    0.179345
     39          6           0       -9.520917    7.991698   -0.146516
     40          6           0      -10.322163    6.890794   -0.449187
     41          6           0       -9.781010    5.603663   -0.436548
     42          8           0      -10.630860    4.567494   -0.772508
     43          6           0      -11.174607    3.854858    0.341958
     44          1           0      -11.768846    4.521873    0.977035
     45          1           0      -11.818644    3.079567   -0.072520
     46          1           0      -10.385781    3.390238    0.941552
     47          1           0      -11.366991    6.989955   -0.708897
     48          8           0       -9.950727    9.284025   -0.144623
     49          6           0      -11.303899    9.547345   -0.489284
     50          1           0      -11.419341   10.628514   -0.434744
     51          1           0      -11.531966    9.209206   -1.506079
     52          1           0      -11.997205    9.073730    0.214791
     53          1           0       -7.557214    8.648199    0.402949
     54          1           0       -6.602998    6.368378    0.405019
     55          1           0       -8.776499    3.344012   -1.929784
     56          1           0       -7.660802    1.152742   -1.967442
     57          6           0       -6.684190   -0.938764   -0.477466
     58          6           0       -7.924033   -1.137885    0.141914
     59          6           0       -8.692136   -2.255911   -0.153082
     60          6           0       -8.251760   -3.224345   -1.068286
     61          6           0       -7.002848   -3.017724   -1.673254
     62          6           0       -6.234035   -1.894297   -1.394612
     63          1           0       -5.276141   -1.759105   -1.882366
     64          1           0       -6.622935   -3.753594   -2.372990
     65          6           0       -9.074355   -4.404066   -1.438322
     66          6           0       -9.741533   -5.204812   -0.488005
     67          6           0      -10.490422   -6.320690   -0.879745
     68          6           0      -10.589114   -6.656541   -2.233187
     69          6           0       -9.938791   -5.878317   -3.191525
     70          6           0       -9.200749   -4.778553   -2.783035
     71          1           0       -8.714408   -4.166883   -3.534234
     72          1           0      -10.032331   -6.144342   -4.236502
     73          8           0      -11.299441   -7.720324   -2.704903
     74          6           0      -11.985477   -8.550716   -1.780708
     75          1           0      -12.745332   -7.991399   -1.222891
     76          1           0      -12.473802   -9.319260   -2.377619
     77          1           0      -11.294191   -9.027627   -1.076442
     78          1           0      -10.986088   -6.922385   -0.134488
     79          8           0       -9.602716   -4.840751    0.820595
     80          6           0      -10.183472   -5.647349    1.833286
     81          1           0      -11.275635   -5.680701    1.748293
     82          1           0       -9.784755   -6.667732    1.813423
     83          1           0       -9.912805   -5.176009    2.776807
     84          1           0       -9.646101   -2.386068    0.339831
     85          1           0       -8.285881   -0.405206    0.853395
     86          1           0       -4.654626   -1.802552    1.047713
     87          1           0       -2.255914   -1.998856    1.468874
     88          1           0        0.252500    0.727024   -1.089395
     89          1           0        2.635999    0.614377   -0.828430
     90         16           0        9.123789    0.305543   -0.605419
     91          6           0       10.469575   -0.212829    0.424075
     92          6           0        9.994005   -0.777274    1.599899
     93          1           0       10.653402   -1.174492    2.359953
     94          6           0       11.846087   -0.026495    0.002967
     95          6           0       12.911052   -0.188287    0.914530
     96          6           0       14.220700   -0.019765    0.513571
     97          6           0       14.553611    0.327482   -0.814183
     98          6           0       13.488229    0.495374   -1.724850
     99          6           0       12.178791    0.320031   -1.325168
    100          1           0       11.391855    0.441040   -2.060468
    101          1           0       13.683793    0.758683   -2.755101
    102          6           0       15.951965    0.484358   -1.128773
    103          6           0       16.598111    0.801101   -2.284978
    104          6           0       15.969472    1.065192   -3.530449
    105          7           0       15.544201    1.294906   -4.583914
    106          6           0       18.103574    0.878389   -2.242749
    107          8           0       18.738018    0.672509   -1.243038
    108          8           0       18.723307    1.195286   -3.399137
    109          1           0       18.087752    1.332222   -4.115879
    110          1           0       16.637229    0.323158   -0.300363
    111          1           0       15.018492   -0.148074    1.237166
    112          1           0       12.704703   -0.430789    1.949174
    113          6           0        7.637268   -2.804247    2.911604
    114          1           0        7.558605   -3.347206    1.967676
    115          1           0        8.589316   -3.066421    3.381452
    116          1           0        6.831512   -3.140233    3.569513
    117          6           0        7.660911   -0.524229    4.024198
    118          1           0        7.602613    0.555306    3.871714
    119          1           0        6.853024   -0.819794    4.698782
    120          1           0        8.611489   -0.752222    4.514437
 ---------------------------------------------------------------------

 SCF Done:  E(RPBE1PBE) =  -4213.21981849     A.U. after   17 cycles

 Excitation energies and oscillator strengths:

 Excited State   1:      Singlet-A      1.8382 eV  674.48 nm  f=1.0984  <S**2>=0.000
     268 -> 269        0.66026
     268 -> 270        0.22776
 This state for optimization and/or second-order correction.
 Total Energy, E(TD-HF/TD-DFT) =  -4213.15226474
 Copying the excited state density for this state as the 1-particle RhoCI density.

 Excited State   2:      Singlet-A      2.2054 eV  562.19 nm  f=0.0642  <S**2>=0.000
     267 -> 269       -0.21130
     267 -> 270       -0.11554
     268 -> 269       -0.24334
     268 -> 270        0.61274

 Excited State   3:      Singlet-A      2.3197 eV  534.48 nm  f=0.8274  <S**2>=0.000
     267 -> 269        0.64661
     267 -> 270        0.12018
     268 -> 270        0.24946

 Excited State   4:      Singlet-A      2.6356 eV  470.43 nm  f=0.1037  <S**2>=0.000
     267 -> 269       -0.15069
     267 -> 270        0.66821

 Excited State   5:      Singlet-A      2.7905 eV  444.30 nm  f=0.0179  <S**2>=0.000
     266 -> 269        0.68936
     266 -> 270        0.14117

 Excited State   6:      Singlet-A      3.0397 eV  407.89 nm  f=0.0726  <S**2>=0.000
     265 -> 269        0.66238
     265 -> 270        0.15882
     268 -> 271       -0.10771

 Excited State   7:      Singlet-A      3.1472 eV  393.95 nm  f=0.0966  <S**2>=0.000
     266 -> 269       -0.12819
     266 -> 270        0.62854
     268 -> 271        0.26073

 Excited State   8:      Singlet-A      3.1622 eV  392.08 nm  f=0.2704  <S**2>=0.000
     265 -> 269        0.13339
     266 -> 270       -0.27635
     267 -> 271       -0.14892
     268 -> 271        0.58612
     268 -> 272        0.10093

 Excited State   9:      Singlet-A      3.3816 eV  366.64 nm  f=0.0170  <S**2>=0.000
     264 -> 269        0.23912
     264 -> 270        0.15487
     265 -> 269       -0.18473
     265 -> 270        0.60215

 Excited State  10:      Singlet-A      3.4235 eV  362.16 nm  f=0.1025  <S**2>=0.000
     264 -> 269        0.58727
     265 -> 270       -0.25128
     267 -> 271        0.18602
     268 -> 271        0.16513

 The electronic state is 1-A.
 Alpha  occ. eigenvalues --  -89.13383 -89.08671 -89.08079 -19.27320 -19.26230
 Alpha  occ. eigenvalues --  -19.26108 -19.26021 -19.24076 -19.21248 -14.44360
 Alpha  occ. eigenvalues --  -14.44293 -14.43639 -14.41609 -10.37603 -10.30349
 Alpha  occ. eigenvalues --  -10.30253 -10.30016 -10.29995 -10.29931 -10.29384
 Alpha  occ. eigenvalues --  -10.29371 -10.29364 -10.29334 -10.29317 -10.29317
 Alpha  occ. eigenvalues --  -10.29185 -10.29103 -10.29045 -10.28911 -10.28831
 Alpha  occ. eigenvalues --  -10.28582 -10.28425 -10.28125 -10.27899 -10.27853
 Alpha  occ. eigenvalues --  -10.27805 -10.27718 -10.27348 -10.26976 -10.26683
 Alpha  occ. eigenvalues --  -10.26452 -10.26376 -10.26171 -10.26124 -10.26104
 Alpha  occ. eigenvalues --  -10.25969 -10.25658 -10.25635 -10.25100 -10.25071
 Alpha  occ. eigenvalues --  -10.24739 -10.24533 -10.24341 -10.24303 -10.24108
 Alpha  occ. eigenvalues --  -10.24036 -10.23994 -10.23975 -10.23944 -10.23931
 Alpha  occ. eigenvalues --  -10.23914 -10.23764 -10.23761 -10.23752 -10.23631
 Alpha  occ. eigenvalues --  -10.23596 -10.23584 -10.23550 -10.23521 -10.23491
 Alpha  occ. eigenvalues --  -10.23475 -10.23406 -10.23176 -10.22669  -8.09687
 Alpha  occ. eigenvalues --   -8.05391  -8.04808  -6.03548  -6.02961  -6.02728
 Alpha  occ. eigenvalues --   -5.99134  -5.98778  -5.98559  -5.98390  -5.98201
 Alpha  occ. eigenvalues --   -5.97793  -1.13457  -1.09905  -1.09667  -1.09629
 Alpha  occ. eigenvalues --   -1.07656  -1.05455  -1.05138  -0.99446  -0.95442
 Alpha  occ. eigenvalues --   -0.95181  -0.92778  -0.92073  -0.90881  -0.89758
 Alpha  occ. eigenvalues --   -0.89037  -0.88736  -0.87822  -0.87149  -0.86742
 Alpha  occ. eigenvalues --   -0.86024  -0.85428  -0.82124  -0.81341  -0.80601
 Alpha  occ. eigenvalues --   -0.79808  -0.79513  -0.79174  -0.78751  -0.77892
 Alpha  occ. eigenvalues --   -0.77635  -0.77190  -0.76849  -0.76820  -0.76652
 Alpha  occ. eigenvalues --   -0.76173  -0.76009  -0.75631  -0.74349  -0.73774
 Alpha  occ. eigenvalues --   -0.72786  -0.72072  -0.72036  -0.70447  -0.70205
 Alpha  occ. eigenvalues --   -0.69245  -0.67490  -0.65688  -0.65495  -0.65136
 Alpha  occ. eigenvalues --   -0.64556  -0.64515  -0.63949  -0.63457  -0.63230
 Alpha  occ. eigenvalues --   -0.62985  -0.62253  -0.61939  -0.61382  -0.61172
 Alpha  occ. eigenvalues --   -0.60760  -0.59745  -0.59583  -0.58894  -0.58290
 Alpha  occ. eigenvalues --   -0.57044  -0.56720  -0.56249  -0.55762  -0.55313
 Alpha  occ. eigenvalues --   -0.54964  -0.54562  -0.54464  -0.53252  -0.52517
 Alpha  occ. eigenvalues --   -0.52163  -0.51762  -0.51546  -0.50905  -0.50621
 Alpha  occ. eigenvalues --   -0.50557  -0.49906  -0.49609  -0.49331  -0.49108
 Alpha  occ. eigenvalues --   -0.49065  -0.48537  -0.48473  -0.48438  -0.47832
 Alpha  occ. eigenvalues --   -0.47535  -0.47032  -0.47011  -0.46826  -0.46768
 Alpha  occ. eigenvalues --   -0.46511  -0.46430  -0.46304  -0.46127  -0.45990
 Alpha  occ. eigenvalues --   -0.45530  -0.45477  -0.45367  -0.45049  -0.44956
 Alpha  occ. eigenvalues --   -0.44855  -0.44336  -0.44055  -0.43667  -0.43204
 Alpha  occ. eigenvalues --   -0.43095  -0.42907  -0.42836  -0.42680  -0.42666
 Alpha  occ. eigenvalues --   -0.42439  -0.42065  -0.41842  -0.41574  -0.41423
 Alpha  occ. eigenvalues --   -0.41237  -0.41094  -0.40429  -0.40204  -0.40140
 Alpha  occ. eigenvalues --   -0.40021  -0.39848  -0.39549  -0.39400  -0.39303
 Alpha  occ. eigenvalues --   -0.39232  -0.39023  -0.38680  -0.38386  -0.38295
 Alpha  occ. eigenvalues --   -0.38234  -0.37986  -0.37775  -0.37429  -0.37345
 Alpha  occ. eigenvalues --   -0.37321  -0.37178  -0.36740  -0.36687  -0.36004
 Alpha  occ. eigenvalues --   -0.35990  -0.35876  -0.35725  -0.35422  -0.35258
 Alpha  occ. eigenvalues --   -0.35077  -0.34828  -0.34636  -0.34437  -0.34179
 Alpha  occ. eigenvalues --   -0.34093  -0.33811  -0.33203  -0.32966  -0.32938
 Alpha  occ. eigenvalues --   -0.31950  -0.31497  -0.30986  -0.30166  -0.29272
 Alpha  occ. eigenvalues --   -0.28788  -0.28329  -0.28150  -0.28107  -0.27666
 Alpha  occ. eigenvalues --   -0.27333  -0.27066  -0.26742  -0.26589  -0.25874
 Alpha  occ. eigenvalues --   -0.25685  -0.25486  -0.24898  -0.24186  -0.22497
 Alpha  occ. eigenvalues --   -0.21413  -0.20047  -0.18334
 Alpha virt. eigenvalues --   -0.10324  -0.08926  -0.05285  -0.02510  -0.02193
 Alpha virt. eigenvalues --   -0.01631  -0.01013  -0.00848   0.00289   0.00532
 Alpha virt. eigenvalues --    0.00711   0.00975   0.01157   0.01280   0.01316

 Mulliken charges:
               1
     1  C   -0.120058
     2  C    0.061885
     3  C   -0.203197
     4  C   -0.199469
     5  S    0.323385
     6  C   -0.293475
     7  C   -0.080597
     8  C    0.057876
     9  H    0.171320
    10  C    0.189560
    11  C   -0.216536
    12  C   -0.181858
    13  C    0.081164
    14  C    0.175467
    15  N   -0.577548
    16  S    0.603026
    17  N   -0.607582
    18  C    0.206070
    19  C    0.043060
    20  C   -0.124332
    21  C   -0.154917
    22  C    0.261909
    23  C   -0.152500
    24  C   -0.150947
    25  H    0.128874
    26  H    0.145845
    27  N   -0.671025
    28  C    0.220009
    29  C   -0.140274
    30  C   -0.134664
    31  C    0.012386
    32  C   -0.155999
    33  C   -0.137898
    34  H    0.143027
    35  H    0.130159
    36  C    0.019538
    37  C   -0.157101
    38  C   -0.154943
    39  C    0.345865
    40  C   -0.184734
    41  C    0.264819
    42  O   -0.547203
    43  C   -0.143308
    44  H    0.125645
    45  H    0.146497
    46  H    0.140082
    47  H    0.132543
    48  O   -0.530388
    49  C   -0.153731
    50  H    0.155928
    51  H    0.141179
    52  H    0.137302
    53  H    0.137260
    54  H    0.132362
    55  H    0.148522
    56  H    0.143348
    57  C    0.215650
    58  C   -0.137587
    59  C   -0.125093
    60  C    0.048912
    61  C   -0.154006
    62  C   -0.136512
    63  H    0.140663
    64  H    0.130358
    65  C   -0.029156
    66  C    0.331822
    67  C   -0.226327
    68  C    0.349571
    69  C   -0.164861
    70  C   -0.149803
    71  H    0.131667
    72  H    0.134805
    73  O   -0.530300
    74  C   -0.152130
    75  H    0.136196
    76  H    0.156955
    77  H    0.136311
    78  H    0.121804
    79  O   -0.533767
    80  C   -0.152782
    81  H    0.135712
    82  H    0.138565
    83  H    0.157708
    84  H    0.133184
    85  H    0.136865
    86  H    0.147164
    87  H    0.147720
    88  H    0.140870
    89  H    0.148604
    90  S    0.338611
    91  C   -0.301323
    92  C   -0.082867
    93  H    0.140163
    94  C    0.136058
    95  C   -0.135653
    96  C   -0.150360
    97  C    0.070431
    98  C   -0.139438
    99  C   -0.180951
   100  H    0.153758
   101  H    0.164376
   102  C   -0.097884
   103  C   -0.052730
   104  C    0.247060
   105  N   -0.510984
   106  C    0.654600
   107  O   -0.456654
   108  O   -0.515734
   109  H    0.346367
   110  H    0.178557
   111  H    0.145809
   112  H    0.134346
   113  C   -0.359577
   114  H    0.151611
   115  H    0.133866
   116  H    0.141557
   117  C   -0.359663
   118  H    0.151310
   119  H    0.141513
   120  H    0.133421
 Sum of Mulliken charges =  -0.00000

 Dipole moment (field-independent basis, Debye):
    X=            -12.6246    Y=             -3.2251    Z=              5.9612  Tot=             14.3289
 Quadrupole moment (field-independent basis, Debye-Ang):
   XX=           -536.1025   YY=           -399.1664   ZZ=           -436.8375
   XY=             -3.9531   XZ=             29.3258   YZ=            -14.3655

 Normal termination of Gaussian 16 at Thu Jul  8 13:02:40 2021.
