 Gaussian 09, Revision D.01,
 Gaussian 09:  ES64L-G09RevD.01 24-Apr-2013

 -----------------------------------
 #N TD(NStates=10) B3lYP/6-311G(d,p)
 -----------------------------------

 ----
 Name
 ----
 Symbolic Z-matrix:
 Charge =  0 Multiplicity = 1

                         Standard orientation:
 ---------------------------------------------------------------------
 Center     Atomic      Atomic             Coordinates (Angstroms)
 Number     Number       Type             X           Y           Z
 ---------------------------------------------------------------------
      1          6           0        7.546561   -1.280310    2.683097
      2          6           0        8.592842   -0.800254    1.678459
      3          6           0        7.982348   -0.250768    0.559527
      4          6           0        6.560027   -0.312166    0.721275
      5         16           0        5.139569    0.126570   -0.154442
      6          6           0        4.110677   -0.497597    1.154165
      7          6           0        4.886064   -1.009111    2.184047
      8          6           0        6.267212   -0.903068    1.938473
      9          1           0        4.434723   -1.436566    3.066072
     10          6           0        2.664740   -0.421969    1.036834
     11          6           0        2.033004    0.180668   -0.038723
     12          6           0        0.630861    0.259925   -0.188264
     13          6           0       -0.271476   -0.248550    0.727084
     14          6           0        0.325305   -0.886039    1.870252
     15          7           0       -0.341718   -1.432283    2.889414
     16         16           0        0.764611   -2.009353    3.945696
     17          7           0        2.137532   -1.584801    3.156203
     18          6           0        1.773595   -0.971653    2.029089
     19          6           0       -1.727905   -0.129793    0.534743
     20          6           0       -2.627700   -1.127090    0.949407
     21          6           0       -3.989468   -1.015240    0.716343
     22          6           0       -4.520458    0.105162    0.056672
     23          6           0       -3.630876    1.111584   -0.353867
     24          6           0       -2.271351    0.992571   -0.114460
     25          1           0       -1.618590    1.799849   -0.426000
     26          1           0       -4.012512    1.990779   -0.857038
     27          7           0       -5.905965    0.218076   -0.183178
     28          6           0       -6.541714    1.490986   -0.162595
     29          6           0       -7.452277    1.849593   -1.164607
     30          6           0       -8.080003    3.087880   -1.142777
     31          6           0       -7.814461    4.022365   -0.129081
     32          6           0       -6.902809    3.649608    0.871239
     33          6           0       -6.281857    2.406948    0.863770
     34          1           0       -5.595470    2.138317    1.657746
     35          1           0       -6.698462    4.333679    1.687379
     36          6           0       -8.431479    5.372355   -0.123591
     37          6           0       -7.655440    6.504999    0.184186
     38          6           0       -8.175336    7.787662    0.179345
     39          6           0       -9.520917    7.991698   -0.146516
     40          6           0      -10.322163    6.890794   -0.449187
     41          6           0       -9.781010    5.603663   -0.436548
     42          8           0      -10.630860    4.567494   -0.772508
     43          6           0      -11.174607    3.854858    0.341958
     44          1           0      -11.768846    4.521873    0.977035
     45          1           0      -11.818644    3.079567   -0.072520
     46          1           0      -10.385781    3.390238    0.941552
     47          1           0      -11.366991    6.989955   -0.708897
     48          8           0       -9.950727    9.284025   -0.144623
     49          6           0      -11.303899    9.547345   -0.489284
     50          1           0      -11.419341   10.628514   -0.434744
     51          1           0      -11.531966    9.209206   -1.506079
     52          1           0      -11.997205    9.073730    0.214791
     53          1           0       -7.557214    8.648199    0.402949
     54          1           0       -6.602998    6.368378    0.405019
     55          1           0       -8.776499    3.344012   -1.929784
     56          1           0       -7.660802    1.152742   -1.967442
     57          6           0       -6.684190   -0.938764   -0.477466
     58          6           0       -7.924033   -1.137885    0.141914
     59          6           0       -8.692136   -2.255911   -0.153082
     60          6           0       -8.251760   -3.224345   -1.068286
     61          6           0       -7.002848   -3.017724   -1.673254
     62          6           0       -6.234035   -1.894297   -1.394612
     63          1           0       -5.276141   -1.759105   -1.882366
     64          1           0       -6.622935   -3.753594   -2.372990
     65          6           0       -9.074355   -4.404066   -1.438322
     66          6           0       -9.741533   -5.204812   -0.488005
     67          6           0      -10.490422   -6.320690   -0.879745
     68          6           0      -10.589114   -6.656541   -2.233187
     69          6           0       -9.938791   -5.878317   -3.191525
     70          6           0       -9.200749   -4.778553   -2.783035
     71          1           0       -8.714408   -4.166883   -3.534234
     72          1           0      -10.032331   -6.144342   -4.236502
     73          8           0      -11.299441   -7.720324   -2.704903
     74          6           0      -11.985477   -8.550716   -1.780708
     75          1           0      -12.745332   -7.991399   -1.222891
     76          1           0      -12.473802   -9.319260   -2.377619
     77          1           0      -11.294191   -9.027627   -1.076442
     78          1           0      -10.986088   -6.922385   -0.134488
     79          8           0       -9.602716   -4.840751    0.820595
     80          6           0      -10.183472   -5.647349    1.833286
     81          1           0      -11.275635   -5.680701    1.748293
     82          1           0       -9.784755   -6.667732    1.813423
     83          1           0       -9.912805   -5.176009    2.776807
     84          1           0       -9.646101   -2.386068    0.339831
     85          1           0       -8.285881   -0.405206    0.853395
     86          1           0       -4.654626   -1.802552    1.047713
     87          1           0       -2.255914   -1.998856    1.468874
     88          1           0        0.252500    0.727024   -1.089395
     89          1           0        2.635999    0.614377   -0.828430
     90         16           0        9.123789    0.305543   -0.605419
     91          6           0       10.469575   -0.212829    0.424075
     92          6           0        9.994005   -0.777274    1.599899
     93          1           0       10.653402   -1.174492    2.359953
     94          6           0       11.846087   -0.026495    0.002967
     95          6           0       12.911052   -0.188287    0.914530
     96          6           0       14.220700   -0.019765    0.513571
     97          6           0       14.553611    0.327482   -0.814183
     98          6           0       13.488229    0.495374   -1.724850
     99          6           0       12.178791    0.320031   -1.325168
    100          1           0       11.391855    0.441040   -2.060468
    101          1           0       13.683793    0.758683   -2.755101
    102          6           0       15.951965    0.484358   -1.128773
    103          6           0       16.598111    0.801101   -2.284978
    104          6           0       15.969472    1.065192   -3.530449
    105          7           0       15.544201    1.294906   -4.583914
    106          6           0       18.103574    0.878389   -2.242749
    107          8           0       18.738018    0.672509   -1.243038
    108          8           0       18.723307    1.195286   -3.399137
    109          1           0       18.087752    1.332222   -4.115879
    110          1           0       16.637229    0.323158   -0.300363
    111          1           0       15.018492   -0.148074    1.237166
    112          1           0       12.704703   -0.430789    1.949174
    113          6           0        7.637268   -2.804247    2.911604
    114          1           0        7.558605   -3.347206    1.967676
    115          1           0        8.589316   -3.066421    3.381452
    116          1           0        6.831512   -3.140233    3.569513
    117          6           0        7.660911   -0.524229    4.024198
    118          1           0        7.602613    0.555306    3.871714
    119          1           0        6.853024   -0.819794    4.698782
    120          1           0        8.611489   -0.752222    4.514437
 ---------------------------------------------------------------------

 SCF Done:  E(RB3LYP) =  -4217.84674664     A.U. after   18 cycles

 Excitation energies and oscillator strengths:

 Excited State   1:      Singlet-A      1.6729 eV  741.11 nm  f=0.9130  <S**2>=0.000
     268 -> 269        0.68189
     268 -> 270        0.17890
 This state for optimization and/or second-order correction.
 Total Energy, E(TD-HF/TD-KS) =  -4217.78526698
 Copying the excited state density for this state as the 1-particle RhoCI density.

 Excited State   2:      Singlet-A      1.9954 eV  621.35 nm  f=0.0873  <S**2>=0.000
     267 -> 269       -0.19811
     268 -> 269       -0.18016
     268 -> 270        0.64695

 Excited State   3:      Singlet-A      2.1671 eV  572.12 nm  f=0.8678  <S**2>=0.000
     267 -> 269        0.65835
     267 -> 270        0.13889
     268 -> 270        0.20896

 Excited State   4:      Singlet-A      2.4413 eV  507.86 nm  f=0.0914  <S**2>=0.000
     267 -> 269       -0.15049
     267 -> 270        0.66657

 Excited State   5:      Singlet-A      2.5423 eV  487.69 nm  f=0.0246  <S**2>=0.000
     266 -> 269        0.69237
     266 -> 270        0.11530

 Excited State   6:      Singlet-A      2.8093 eV  441.33 nm  f=0.0744  <S**2>=0.000
     265 -> 269        0.67637
     265 -> 270        0.13203
     268 -> 271        0.10052

 Excited State   7:      Singlet-A      2.8822 eV  430.17 nm  f=0.0219  <S**2>=0.000
     266 -> 269       -0.11591
     266 -> 270        0.68727

 Excited State   8:      Singlet-A      2.9301 eV  423.14 nm  f=0.3081  <S**2>=0.000
     264 -> 269        0.11604
     265 -> 269       -0.10079
     267 -> 271       -0.10089
     268 -> 271        0.65971

 Excited State   9:      Singlet-A      3.1281 eV  396.35 nm  f=0.0204  <S**2>=0.000
     264 -> 269        0.15165
     265 -> 269       -0.14039
     265 -> 270        0.65792

 Excited State  10:      Singlet-A      3.2142 eV  385.74 nm  f=0.1290  <S**2>=0.000
     264 -> 269        0.62114
     264 -> 270        0.10011
     265 -> 270       -0.13682
     267 -> 271       -0.21747
     268 -> 271       -0.14332

 The electronic state is 1-A.
 Alpha  occ. eigenvalues --  -88.94308 -88.89674 -88.89079 -19.16784 -19.15721
 Alpha  occ. eigenvalues --  -19.15559 -19.15482 -19.13554 -19.10628 -14.35461
 Alpha  occ. eigenvalues --  -14.35395 -14.34836 -14.32844 -10.31370 -10.24243
 Alpha  occ. eigenvalues --  -10.23970 -10.23909 -10.23838 -10.23725 -10.23403
 Alpha  occ. eigenvalues --  -10.23255 -10.23231 -10.22983 -10.22941 -10.22825
 Alpha  occ. eigenvalues --  -10.22797 -10.22741 -10.22565 -10.22542 -10.22278
 Alpha  occ. eigenvalues --  -10.22197 -10.22194 -10.21917 -10.21905 -10.21689
 Alpha  occ. eigenvalues --  -10.21499 -10.21469 -10.20982 -10.20609 -10.20290
 Alpha  occ. eigenvalues --  -10.20044 -10.20008 -10.19792 -10.19760 -10.19709
 Alpha  occ. eigenvalues --  -10.19556 -10.19271 -10.19210 -10.18762 -10.18703
 Alpha  occ. eigenvalues --  -10.18472 -10.18259 -10.18101 -10.18029 -10.17901
 Alpha  occ. eigenvalues --  -10.17884 -10.17847 -10.17802 -10.17666 -10.17649
 Alpha  occ. eigenvalues --  -10.17624 -10.17547 -10.17493 -10.17484 -10.17363
 Alpha  occ. eigenvalues --  -10.17344 -10.17310 -10.17308 -10.17283 -10.17270
 Alpha  occ. eigenvalues --  -10.17226 -10.17148 -10.16966 -10.16448  -8.02583
 Alpha  occ. eigenvalues --   -7.98277  -7.97689  -5.98997  -5.98416  -5.98187
 Alpha  occ. eigenvalues --   -5.94581  -5.94215  -5.94001  -5.93843  -5.93634
 Alpha  occ. eigenvalues --   -5.93241  -1.11054  -1.07645  -1.07387  -1.07351
 Alpha  occ. eigenvalues --   -1.05429  -1.03234  -1.02927  -0.97242  -0.93282
 Alpha  occ. eigenvalues --   -0.93151  -0.90753  -0.90032  -0.88855  -0.87767
 Alpha  occ. eigenvalues --   -0.87109  -0.86815  -0.85904  -0.85287  -0.84823
 Alpha  occ. eigenvalues --   -0.84168  -0.83557  -0.80307  -0.79551  -0.78881
 Alpha  occ. eigenvalues --   -0.78086  -0.77777  -0.77532  -0.77045  -0.76254
 Alpha  occ. eigenvalues --   -0.76008  -0.75538  -0.75284  -0.75199  -0.75012
 Alpha  occ. eigenvalues --   -0.74554  -0.74443  -0.74038  -0.72815  -0.72230
 Alpha  occ. eigenvalues --   -0.71244  -0.70556  -0.70525  -0.68991  -0.68744
 Alpha  occ. eigenvalues --   -0.67813  -0.66155  -0.64356  -0.64221  -0.63857
 Alpha  occ. eigenvalues --   -0.63308  -0.63235  -0.62719  -0.62239  -0.62021
 Alpha  occ. eigenvalues --   -0.61791  -0.61054  -0.60746  -0.60241  -0.60034
 Alpha  occ. eigenvalues --   -0.59619  -0.58656  -0.58509  -0.57799  -0.57241
 Alpha  occ. eigenvalues --   -0.55988  -0.55666  -0.55334  -0.54731  -0.54415
 Alpha  occ. eigenvalues --   -0.54046  -0.53664  -0.53549  -0.52334  -0.51775
 Alpha  occ. eigenvalues --   -0.51310  -0.50940  -0.50813  -0.50082  -0.49794
 Alpha  occ. eigenvalues --   -0.49716  -0.49120  -0.48884  -0.48646  -0.48309
 Alpha  occ. eigenvalues --   -0.48281  -0.47759  -0.47719  -0.47679  -0.47114
 Alpha  occ. eigenvalues --   -0.46669  -0.46273  -0.46119  -0.46101  -0.46057
 Alpha  occ. eigenvalues --   -0.45755  -0.45648  -0.45591  -0.45471  -0.45384
 Alpha  occ. eigenvalues --   -0.44909  -0.44866  -0.44756  -0.44449  -0.44290
 Alpha  occ. eigenvalues --   -0.44212  -0.43797  -0.43516  -0.43021  -0.42722
 Alpha  occ. eigenvalues --   -0.42613  -0.42447  -0.42372  -0.42213  -0.41989
 Alpha  occ. eigenvalues --   -0.41920  -0.41565  -0.41281  -0.40978  -0.40941
 Alpha  occ. eigenvalues --   -0.40675  -0.40386  -0.39916  -0.39554  -0.39490
 Alpha  occ. eigenvalues --   -0.39441  -0.39321  -0.38900  -0.38839  -0.38687
 Alpha  occ. eigenvalues --   -0.38679  -0.38335  -0.38258  -0.37863  -0.37819
 Alpha  occ. eigenvalues --   -0.37731  -0.37471  -0.37248  -0.36977  -0.36883
 Alpha  occ. eigenvalues --   -0.36838  -0.36732  -0.36394  -0.36161  -0.35575
 Alpha  occ. eigenvalues --   -0.35537  -0.35493  -0.35324  -0.35034  -0.34805
 Alpha  occ. eigenvalues --   -0.34742  -0.34465  -0.34280  -0.34145  -0.33822
 Alpha  occ. eigenvalues --   -0.33539  -0.33463  -0.32774  -0.32530  -0.32398
 Alpha  occ. eigenvalues --   -0.31464  -0.30948  -0.30535  -0.29707  -0.28720
 Alpha  occ. eigenvalues --   -0.28430  -0.28001  -0.27782  -0.27748  -0.27241
 Alpha  occ. eigenvalues --   -0.27025  -0.26671  -0.26494  -0.26264  -0.25599
 Alpha  occ. eigenvalues --   -0.25430  -0.25251  -0.24689  -0.23946  -0.22328
 Alpha  occ. eigenvalues --   -0.21277  -0.19945  -0.18284
 Alpha virt. eigenvalues --   -0.11286  -0.09950  -0.06467  -0.03850  -0.03559
 Alpha virt. eigenvalues --   -0.03203  -0.02565  -0.02431  -0.01218  -0.01140
 Alpha virt. eigenvalues --   -0.00915  -0.00546  -0.00369  -0.00310  -0.00295

 Mulliken charges:
               1
     1  C   -0.275429
     2  C    0.022184
     3  C   -0.185028
     4  C   -0.178229
     5  S    0.301797
     6  C   -0.280680
     7  C    0.034818
     8  C    0.021827
     9  H    0.121169
    10  C    0.096925
    11  C   -0.103761
    12  C   -0.075703
    13  C    0.006331
    14  C    0.105754
    15  N   -0.478774
    16  S    0.551866
    17  N   -0.514784
    18  C    0.135666
    19  C   -0.027448
    20  C   -0.029941
    21  C   -0.106945
    22  C    0.163415
    23  C   -0.104412
    24  C   -0.070260
    25  H    0.093485
    26  H    0.115079
    27  N   -0.503793
    28  C    0.102400
    29  C   -0.080273
    30  C   -0.045576
    31  C   -0.099287
    32  C   -0.073797
    33  C   -0.076101
    34  H    0.107758
    35  H    0.094495
    36  C   -0.024071
    37  C   -0.059592
    38  C   -0.088220
    39  C    0.186345
    40  C   -0.097514
    41  C    0.112236
    42  O   -0.387075
    43  C   -0.108120
    44  H    0.095484
    45  H    0.116393
    46  H    0.115828
    47  H    0.102183
    48  O   -0.347785
    49  C   -0.132889
    50  H    0.130368
    51  H    0.114313
    52  H    0.110172
    53  H    0.100097
    54  H    0.096286
    55  H    0.106577
    56  H    0.107855
    57  C    0.097327
    58  C   -0.082990
    59  C   -0.027596
    60  C   -0.021751
    61  C   -0.069629
    62  C   -0.077270
    63  H    0.105362
    64  H    0.095687
    65  C   -0.098364
    66  C    0.196132
    67  C   -0.179856
    68  C    0.178085
    69  C   -0.091015
    70  C   -0.064565
    71  H    0.093527
    72  H    0.097396
    73  O   -0.348315
    74  C   -0.133233
    75  H    0.109158
    76  H    0.131517
    77  H    0.109264
    78  H    0.115844
    79  O   -0.359078
    80  C   -0.132532
    81  H    0.108506
    82  H    0.111128
    83  H    0.132152
    84  H    0.090964
    85  H    0.102182
    86  H    0.115728
    87  H    0.104843
    88  H    0.099026
    89  H    0.102635
    90  S    0.317142
    91  C   -0.297550
    92  C    0.027353
    93  H    0.093922
    94  C    0.035800
    95  C   -0.039583
    96  C   -0.058894
    97  C   -0.087439
    98  C   -0.046437
    99  C   -0.098287
   100  H    0.109245
   101  H    0.127668
   102  C    0.052771
   103  C   -0.205303
   104  C   -0.003542
   105  N   -0.237288
   106  C    0.462503
   107  O   -0.318118
   108  O   -0.299978
   109  H    0.256016
   110  H    0.129687
   111  H    0.100160
   112  H    0.094967
   113  C   -0.211637
   114  H    0.121678
   115  H    0.107061
   116  H    0.113939
   117  C   -0.211575
   118  H    0.121471
   119  H    0.113939
   120  H    0.106426
 Sum of Mulliken charges =   0.00000

 Dipole moment (field-independent basis, Debye):
    X=            -13.1615    Y=             -3.2377    Z=              5.9731  Tot=             14.8116
 Quadrupole moment (field-independent basis, Debye-Ang):
   XX=           -557.4071   YY=           -408.5855   ZZ=           -446.8435
   XY=             -3.9532   XZ=             29.5690   YZ=            -14.2823

 Normal termination of Gaussian 09 at Tue May 18 20:42:09 2021.
