 Gaussian 09, Revision D.01,
 Gaussian 09:  ES64L-G09RevD.01 24-Apr-2013

 -------------------------------------
 #N PBE1PBE/6-311G(d,p) TD(NStates=10)
 -------------------------------------

 ----
 Name
 ----
 Symbolic Z-matrix:
 Charge =  0 Multiplicity = 1

                         Standard orientation:
 ---------------------------------------------------------------------
 Center     Atomic      Atomic             Coordinates (Angstroms)
 Number     Number       Type             X           Y           Z
 ---------------------------------------------------------------------
      1          6           0       -1.583874    0.556693   -0.164710
      2          6           0       -2.616567    1.501336   -0.011816
      3          6           0       -3.942989    1.109980    0.076132
      4          6           0       -1.955555   -0.799337   -0.216835
      5          6           0       -3.278111   -1.195779   -0.112784
      6          6           0       -4.302513   -0.246165    0.031800
      7          7           0       -5.653743   -0.644860    0.129870
      8          6           0       -6.555670    0.066752    0.971486
      9          6           0       -7.838060    0.397737    0.515342
     10          6           0       -8.722623    1.080689    1.344026
     11          6           0       -8.340848    1.457342    2.630424
     12          6           0       -7.063338    1.134339    3.084793
     13          6           0       -6.178212    0.437140    2.268997
     14          6           0       -6.131217   -1.761390   -0.614412
     15          6           0       -6.956415   -2.716346   -0.006713
     16          6           0       -7.433142   -3.798766   -0.739167
     17          6           0       -7.084546   -3.955554   -2.079443
     18          6           0       -6.258475   -3.010070   -2.684947
     19          6           0       -5.790828   -1.915720   -1.964668
     20          6           0       -0.185482    0.962340   -0.256540
     21          6           0        0.356566    2.192127   -0.564926
     22          8           0       -0.390562    3.304695   -0.846805
     23          6           0        0.356626    4.327160   -1.518002
     24          6           0        1.682531    4.548965   -0.817823
     25          8           0        2.477808    3.353448   -0.866145
     26          6           0        1.780564    2.218376   -0.571879
     27          6           0        2.372844    1.004615   -0.273638
     28         16           0        1.109661   -0.179762    0.039166
     29          6           0        3.775522    0.647382   -0.180919
     30          6           0        4.799792    1.544768   -0.555334
     31          6           0        6.128149    1.179214   -0.455261
     32          6           0        6.523026   -0.090680    0.016352
     33          6           0        7.936061   -0.366375    0.079998
     34          6           0        8.636656   -1.464719    0.478523
     35          6           0        8.065263   -2.673643    0.956033
     36          7           0        7.689718   -3.694698    1.356037
     37          6           0       10.140658   -1.395407    0.408212
     38          8           0       10.813696   -2.496137    0.806598
     39          8           0       10.731511   -0.422698    0.021469
     40          6           0        5.497845   -0.988283    0.387471
     41          6           0        4.170822   -0.625996    0.290747
     42          1           0       -2.374338    2.553585    0.028009
     43          1           0       -4.714250    1.862200    0.184040
     44          1           0       -1.195538   -1.562581   -0.341151
     45          1           0       -3.526140   -2.248973   -0.147733
     46          1           0       -8.135862    0.114688   -0.486946
     47          1           0       -9.711776    1.329472    0.975962
     48          1           0       -9.030505    1.994060    3.271253
     49          1           0       -6.756134    1.413000    4.086683
     50          1           0       -5.191399    0.176549    2.631921
     51          1           0       -7.221172   -2.603789    1.037568
     52          1           0       -8.070273   -4.529970   -0.254258
     53          1           0       -7.452466   -4.803421   -2.645213
     54          1           0       -5.986196   -3.115491   -3.729222
     55          1           0       -5.160487   -1.175801   -2.442754
     56          1           0       -0.259860    5.225547   -1.485974
     57          1           0        0.520780    4.037932   -2.562391
     58          1           0        1.518767    4.833477    0.227260
     59          1           0        2.269554    5.321118   -1.314991
     60          1           0        4.541252    2.524766   -0.926188
     61          1           0        6.894159    1.888091   -0.751406
     62          1           0        8.583563    0.443108   -0.247632
     63          1           0       10.209140   -3.196646    1.089759
     64          1           0        5.739114   -1.975266    0.757291
     65          1           0        3.417278   -1.343373    0.594055
 ---------------------------------------------------------------------

 SCF Done:  E(RPBE1PBE) =  -2116.92011602     A.U. after   16 cycles

 Excitation energies and oscillator strengths:

 Excited State   1:      Singlet-A      2.3283 eV  532.51 nm  f=0.8852  <S**2>=0.000
     145 ->146         0.70362
 This state for optimization and/or second-order correction.
 Total Energy, E(TD-HF/TD-KS) =  -2116.83455220
 Copying the excited state density for this state as the 1-particle RhoCI density.

 Excited State   2:      Singlet-A      3.1319 eV  395.87 nm  f=0.6796  <S**2>=0.000
     144 ->146         0.68361
     145 ->147         0.16363

 Excited State   3:      Singlet-A      3.4181 eV  362.73 nm  f=0.0331  <S**2>=0.000
     143 ->146         0.65122
     145 ->147        -0.25127

 Excited State   4:      Singlet-A      3.4782 eV  356.46 nm  f=0.2646  <S**2>=0.000
     143 ->146         0.26182
     144 ->146        -0.14655
     145 ->147         0.62176

 Excited State   5:      Singlet-A      3.8106 eV  325.37 nm  f=0.0161  <S**2>=0.000
     144 ->148        -0.11819
     145 ->148         0.67463

 Excited State   6:      Singlet-A      4.0466 eV  306.39 nm  f=0.1662  <S**2>=0.000
     144 ->149        -0.12676
     145 ->149         0.68541

 Excited State   7:      Singlet-A      4.1046 eV  302.06 nm  f=0.0017  <S**2>=0.000
     137 ->146         0.52379
     142 ->146         0.10250
     144 ->147         0.22401
     144 ->150        -0.17409
     145 ->150        -0.33912

 Excited State   8:      Singlet-A      4.1376 eV  299.65 nm  f=0.1301  <S**2>=0.000
     137 ->146        -0.15761
     140 ->146        -0.24876
     142 ->146         0.51847
     144 ->147         0.31165
     145 ->150         0.12660

 Excited State   9:      Singlet-A      4.1761 eV  296.89 nm  f=0.0001  <S**2>=0.000
     135 ->146         0.68127
     135 ->147        -0.14293

 Excited State  10:      Singlet-A      4.2152 eV  294.14 nm  f=0.0040  <S**2>=0.000
     139 ->146         0.18512
     141 ->146         0.60620
     145 ->148        -0.11586
     145 ->152         0.19577

 The electronic state is 1-A.
 Alpha  occ. eigenvalues --  -89.06040 -19.26599 -19.26058 -19.24611 -19.18429
 Alpha  occ. eigenvalues --  -14.42582 -14.39374 -10.36161 -10.31230 -10.31044
 Alpha  occ. eigenvalues --  -10.30901 -10.30546 -10.28091 -10.28064 -10.27922
 Alpha  occ. eigenvalues --  -10.27778 -10.27758 -10.27756 -10.27660 -10.27622
 Alpha  occ. eigenvalues --  -10.27226 -10.25807 -10.25342 -10.24955 -10.24780
 Alpha  occ. eigenvalues --  -10.24503 -10.24047 -10.23942 -10.23585 -10.23498
 Alpha  occ. eigenvalues --  -10.23489 -10.23479 -10.23458 -10.23396 -10.23302
 Alpha  occ. eigenvalues --  -10.23294 -10.23276 -10.23271 -10.23254 -10.23071
 Alpha  occ. eigenvalues --  -10.23044  -8.04403  -5.98104  -5.97749  -5.97307
 Alpha  occ. eigenvalues --   -1.14576  -1.13689  -1.10964  -1.05370  -1.00647
 Alpha  occ. eigenvalues --   -0.95410  -0.93610  -0.91141  -0.89624  -0.89373
 Alpha  occ. eigenvalues --   -0.87601  -0.86408  -0.82729  -0.82518  -0.80038
 Alpha  occ. eigenvalues --   -0.79345  -0.79307  -0.78108  -0.78043  -0.77832
 Alpha  occ. eigenvalues --   -0.76689  -0.75052  -0.73923  -0.71731  -0.68955
 Alpha  occ. eigenvalues --   -0.66568  -0.65899  -0.65300  -0.64410  -0.63882
 Alpha  occ. eigenvalues --   -0.63505  -0.63099  -0.62760  -0.61236  -0.60029
 Alpha  occ. eigenvalues --   -0.59734  -0.58472  -0.58231  -0.56253  -0.56167
 Alpha  occ. eigenvalues --   -0.55231  -0.54145  -0.53660  -0.51956  -0.50765
 Alpha  occ. eigenvalues --   -0.50262  -0.49714  -0.49029  -0.48376  -0.48154
 Alpha  occ. eigenvalues --   -0.47737  -0.47508  -0.47336  -0.47085  -0.46898
 Alpha  occ. eigenvalues --   -0.46416  -0.46133  -0.45839  -0.45366  -0.45241
 Alpha  occ. eigenvalues --   -0.44699  -0.44464  -0.44305  -0.44048  -0.43475
 Alpha  occ. eigenvalues --   -0.42400  -0.41783  -0.41691  -0.40588  -0.40277
 Alpha  occ. eigenvalues --   -0.39796  -0.39634  -0.39503  -0.39440  -0.39245
 Alpha  occ. eigenvalues --   -0.38792  -0.38370  -0.37851  -0.37644  -0.37095
 Alpha  occ. eigenvalues --   -0.37044  -0.36501  -0.36330  -0.36033  -0.35818
 Alpha  occ. eigenvalues --   -0.34578  -0.33863  -0.33265  -0.32522  -0.29669
 Alpha  occ. eigenvalues --   -0.29644  -0.28705  -0.28319  -0.28218  -0.27414
 Alpha  occ. eigenvalues --   -0.27168  -0.26907  -0.24887  -0.22995  -0.19923
 Alpha virt. eigenvalues --   -0.10114  -0.05312  -0.02782  -0.02279  -0.01960
 Alpha virt. eigenvalues --   -0.01189  -0.00540  -0.00440   0.01448   0.01472
 Alpha virt. eigenvalues --    0.01627   0.02584   0.03201   0.04288   0.04616

 Mulliken charges:
               1
     1  C    0.003765
     2  C   -0.027594
     3  C   -0.108689
     4  C   -0.110892
     5  C   -0.107420
     6  C    0.160487
     7  N   -0.552481
     8  C    0.087826
     9  C   -0.083124
    10  C   -0.100552
    11  C   -0.103126
    12  C   -0.099345
    13  C   -0.083189
    14  C    0.085500
    15  C   -0.082055
    16  C   -0.100110
    17  C   -0.102640
    18  C   -0.098972
    19  C   -0.083597
    20  C   -0.322395
    21  C    0.238462
    22  O   -0.376216
    23  C   -0.076056
    24  C   -0.071040
    25  O   -0.378372
    26  C    0.251423
    27  C   -0.342615
    28  S    0.373135
    29  C    0.034292
    30  C   -0.029274
    31  C   -0.068060
    32  C   -0.106033
    33  C    0.060000
    34  C   -0.229481
    35  C    0.034119
    36  N   -0.284717
    37  C    0.500224
    38  O   -0.311250
    39  O   -0.333120
    40  C   -0.046732
    41  C   -0.124701
    42  H    0.118938
    43  H    0.128489
    44  H    0.113766
    45  H    0.129849
    46  H    0.123291
    47  H    0.108681
    48  H    0.106222
    49  H    0.109196
    50  H    0.124845
    51  H    0.123384
    52  H    0.109156
    53  H    0.106655
    54  H    0.109231
    55  H    0.124031
    56  H    0.142280
    57  H    0.153643
    58  H    0.155383
    59  H    0.142586
    60  H    0.125116
    61  H    0.107629
    62  H    0.140441
    63  H    0.260356
    64  H    0.135628
    65  H    0.115815
 Sum of Mulliken charges =   0.00000

 Dipole moment (field-independent basis, Debye):
    X=             -9.1268    Y=              5.2952    Z=             -1.5928  Tot=             10.6712
 Quadrupole moment (field-independent basis, Debye-Ang):
   XX=           -316.4120   YY=           -215.0927   ZZ=           -236.7598
   XY=             21.0322   XZ=             -6.4358   YZ=             -0.8997

 Normal termination of Gaussian 09 at Mon Jul 12 20:50:30 2021.
