 Gaussian 09, Revision D.01,
 Gaussian 09:  ES64L-G09RevD.01 24-Apr-2013

 -------------------------------------
 #N TD(NStates=10) PBE1PBE/6-311G(d,p)
 -------------------------------------

 ----
 Name
 ----
 Symbolic Z-matrix:
 Charge =  0 Multiplicity = 1

                         Standard orientation:
 ---------------------------------------------------------------------
 Center     Atomic      Atomic             Coordinates (Angstroms)
 Number     Number       Type             X           Y           Z
 ---------------------------------------------------------------------
      1          6           0       -0.012345   -2.980026   -0.407714
      2          6           0        1.181844   -2.045438   -0.222401
      3          6           0        0.752200   -0.744172    0.018210
      4          6           0       -0.678945   -0.712420    0.018957
      5         16           0       -1.952649    0.436098    0.234611
      6          6           0       -3.166989   -0.822632   -0.024199
      7          6           0       -4.590214   -0.504269    0.023730
      8          6           0       -5.077595    0.785619   -0.249982
      9          6           0       -6.432593    1.072378   -0.214590
     10          6           0       -7.369931    0.075781    0.102040
     11          7           0       -8.750787    0.360996    0.139017
     12          6           0       -9.214154    1.625471    0.604336
     13          6           0      -10.211451    2.315082   -0.096618
     14          1           0      -10.621524    1.883625   -1.001624
     15          6           0      -10.673568    3.542360    0.368124
     16          6           0      -10.140206    4.107439    1.525024
     17          6           0       -9.143025    3.426075    2.220855
     18          6           0       -8.687099    2.190479    1.772925
     19          1           0       -7.922238    1.658029    2.325222
     20          1           0       -8.725837    3.850586    3.127182
     21          1           0      -10.497770    5.066545    1.880804
     22          1           0      -11.446160    4.064263   -0.185371
     23          6           0       -9.697475   -0.610328   -0.296792
     24          6           0       -9.491944   -1.320371   -1.486903
     25          6           0      -10.419217   -2.268662   -1.906510
     26          6           0      -11.570826   -2.511165   -1.159718
     27          6           0      -11.782979   -1.798229    0.018937
     28          6           0      -10.852595   -0.860168    0.454890
     29          1           0      -11.016238   -0.314505    1.376158
     30          1           0      -12.672641   -1.980152    0.611433
     31          1           0      -12.294962   -3.245179   -1.493156
     32          1           0      -10.246749   -2.809387   -2.830429
     33          1           0       -8.605701   -1.124463   -2.078241
     34          6           0       -6.892132   -1.215381    0.383799
     35          6           0       -5.536667   -1.494682    0.344250
     36          1           0       -5.201094   -2.491617    0.604837
     37          1           0       -7.593124   -1.996191    0.650665
     38          1           0       -6.774959    2.072453   -0.448304
     39          1           0       -4.386677    1.572727   -0.531103
     40          6           0       -2.566632   -2.050285   -0.246603
     41          6           0       -1.159785   -1.989277   -0.220778
     42          1           0       -3.141310   -2.943633   -0.451656
     43         16           0        2.061887    0.356529    0.220661
     44          6           0        3.231933   -0.951498   -0.037351
     45          6           0        2.575347   -2.161542   -0.253040
     46          1           0        3.115099   -3.079791   -0.447226
     47          6           0        4.640379   -0.717411    0.023240
     48         16           0        5.733327   -2.034076    0.349049
     49          6           0        7.181931   -1.019341    0.262279
     50          6           0        6.783600    0.295128    0.016413
     51          6           0        5.371044    0.469850   -0.133365
     52          6           0        5.025084    1.801268   -0.517720
     53          6           0        6.119705    2.595367   -0.662240
     54         16           0        7.647231    1.775514   -0.315112
     55          6           0        6.069008    4.017068   -1.053967
     56          8           0        5.049654    4.622320   -1.285892
     57          8           0        7.303607    4.551046   -1.121623
     58          6           0        7.370376    5.942741   -1.483219
     59          1           0        6.944427    6.097414   -2.475575
     60          1           0        6.823812    6.548393   -0.759226
     61          1           0        8.428176    6.193112   -1.474066
     62          1           0        4.027359    2.172062   -0.700610
     63          6           0        8.432625   -1.681481    0.378047
     64          6           0        9.676085   -1.205887    0.713146
     65          6           0        9.888149    0.086727    1.261912
     66          7           0       10.053217    1.127542    1.738771
     67          6           0       10.879484   -2.097164    0.718285
     68          8           0       11.846749   -1.900768    1.397866
     69          8           0       10.816483   -3.192706   -0.094466
     70          1           0       10.132726   -3.071141   -0.762969
     71          1           0        8.379649   -2.754691    0.207370
     72          6           0       -0.027915   -3.601173   -1.821045
     73          1           0       -0.007959   -2.826361   -2.589895
     74          1           0        0.839207   -4.251575   -1.964513
     75          1           0       -0.928742   -4.203986   -1.963969
     76          6           0       -0.040437   -4.085156    0.669821
     77          1           0       -0.025893   -3.655350    1.673304
     78          1           0       -0.943515   -4.693214    0.569463
     79          1           0        0.824494   -4.745968    0.565774
 ---------------------------------------------------------------------

 SCF Done:  E(RPBE1PBE) =  -3580.01132710     A.U. after   17 cycles

 Excitation energies and oscillator strengths:

 Excited State   1:      Singlet-A      2.0219 eV  613.19 nm  f=1.4777  <S**2>=0.000
     192 -> 193        0.70395
 This state for optimization and/or second-order correction.
 Total Energy, E(TD-HF/TD-KS) =  -3579.93702191
 Copying the excited state density for this state as the 1-particle RhoCI density.

 Excited State   2:      Singlet-A      2.5540 eV  485.45 nm  f=0.3169  <S**2>=0.000
     191 -> 193        0.68806
     192 -> 194        0.12427

 Excited State   3:      Singlet-A      2.9360 eV  422.29 nm  f=0.0180  <S**2>=0.000
     190 -> 193        0.20198
     191 -> 193       -0.14336
     191 -> 194       -0.14133
     192 -> 194        0.63801

 Excited State   4:      Singlet-A      3.1654 eV  391.68 nm  f=0.0325  <S**2>=0.000
     190 -> 193        0.60602
     192 -> 194       -0.20272
     192 -> 195       -0.24769

 Excited State   5:      Singlet-A      3.2433 eV  382.28 nm  f=0.4028  <S**2>=0.000
     190 -> 193        0.21039
     191 -> 194       -0.14809
     192 -> 195        0.63014

 Excited State   6:      Singlet-A      3.4823 eV  356.04 nm  f=0.0198  <S**2>=0.000
     187 -> 193       -0.15313
     190 -> 193        0.12043
     190 -> 194        0.12012
     191 -> 194        0.63137
     192 -> 194        0.12861
     192 -> 195        0.13892

 Excited State   7:      Singlet-A      3.7505 eV  330.58 nm  f=0.0643  <S**2>=0.000
     187 -> 193        0.47440
     190 -> 194       -0.10464
     191 -> 194        0.14638
     191 -> 195       -0.45973

 Excited State   8:      Singlet-A      3.7591 eV  329.82 nm  f=0.0118  <S**2>=0.000
     191 -> 196        0.24062
     192 -> 196        0.63485

 Excited State   9:      Singlet-A      3.8336 eV  323.42 nm  f=0.0496  <S**2>=0.000
     187 -> 193        0.43764
     191 -> 194        0.14028
     191 -> 195        0.49414

 Excited State  10:      Singlet-A      3.9334 eV  315.21 nm  f=0.0144  <S**2>=0.000
     182 -> 193        0.29818
     185 -> 193        0.39374
     186 -> 193        0.34904
     188 -> 193       -0.15341
     189 -> 193        0.23459
     190 -> 193       -0.10109

 The electronic state is 1-A.
 Alpha  occ. eigenvalues --  -89.08107 -89.07886 -89.06953 -89.06724 -19.25877
 Alpha  occ. eigenvalues --  -19.24817 -19.19582 -19.18532 -14.43042 -14.37423
 Alpha  occ. eigenvalues --  -10.36511 -10.36033 -10.31243 -10.29750 -10.29678
 Alpha  occ. eigenvalues --  -10.29634 -10.29300 -10.29020 -10.28698 -10.28626
 Alpha  occ. eigenvalues --  -10.28405 -10.28294 -10.28208 -10.28176 -10.28123
 Alpha  occ. eigenvalues --  -10.28087 -10.28023 -10.27147 -10.26306 -10.26058
 Alpha  occ. eigenvalues --  -10.25764 -10.25708 -10.25659 -10.25492 -10.24895
 Alpha  occ. eigenvalues --  -10.24576 -10.24528 -10.24017 -10.23978 -10.23888
 Alpha  occ. eigenvalues --  -10.23856 -10.23795 -10.23782 -10.23721 -10.23664
 Alpha  occ. eigenvalues --  -10.23645 -10.23604 -10.23544 -10.23523 -10.23451
 Alpha  occ. eigenvalues --  -10.23365  -8.06467  -8.06211  -8.05286  -8.05010
 Alpha  occ. eigenvalues --   -6.00162  -5.99897  -5.99776  -5.99536  -5.99412
 Alpha  occ. eigenvalues --   -5.99156  -5.98972  -5.98719  -5.98609  -5.98334
 Alpha  occ. eigenvalues --   -5.98238  -5.97911  -1.14841  -1.13574  -1.05893
 Alpha  occ. eigenvalues --   -1.05472  -1.01119  -0.97057  -0.96224  -0.93365
 Alpha  occ. eigenvalues --   -0.92819  -0.90557  -0.90045  -0.89744  -0.88343
 Alpha  occ. eigenvalues --   -0.87454  -0.86379  -0.82969  -0.81640  -0.80039
 Alpha  occ. eigenvalues --   -0.79839  -0.79560  -0.78770  -0.78361  -0.78206
 Alpha  occ. eigenvalues --   -0.78168  -0.77193  -0.76771  -0.75522  -0.74993
 Alpha  occ. eigenvalues --   -0.73112  -0.73035  -0.69761  -0.67390  -0.66553
 Alpha  occ. eigenvalues --   -0.66345  -0.65560  -0.64887  -0.64256  -0.64078
 Alpha  occ. eigenvalues --   -0.63454  -0.63040  -0.61007  -0.60282  -0.59019
 Alpha  occ. eigenvalues --   -0.58913  -0.58193  -0.58027  -0.57303  -0.56802
 Alpha  occ. eigenvalues --   -0.56598  -0.55808  -0.53780  -0.52728  -0.52168
 Alpha  occ. eigenvalues --   -0.51363  -0.51216  -0.51012  -0.50810  -0.50036
 Alpha  occ. eigenvalues --   -0.49788  -0.49001  -0.48514  -0.48058  -0.47905
 Alpha  occ. eigenvalues --   -0.47782  -0.47251  -0.47132  -0.46849  -0.46257
 Alpha  occ. eigenvalues --   -0.46138  -0.45868  -0.45702  -0.45378  -0.45271
 Alpha  occ. eigenvalues --   -0.44837  -0.44784  -0.44658  -0.44215  -0.43388
 Alpha  occ. eigenvalues --   -0.43070  -0.42876  -0.42543  -0.42200  -0.41749
 Alpha  occ. eigenvalues --   -0.41539  -0.41304  -0.40545  -0.40477  -0.40022
 Alpha  occ. eigenvalues --   -0.39845  -0.39786  -0.39361  -0.39256  -0.39068
 Alpha  occ. eigenvalues --   -0.38701  -0.38174  -0.38138  -0.38000  -0.37599
 Alpha  occ. eigenvalues --   -0.37522  -0.37238  -0.36728  -0.36705  -0.36652
 Alpha  occ. eigenvalues --   -0.36286  -0.35749  -0.34962  -0.34286  -0.33763
 Alpha  occ. eigenvalues --   -0.33740  -0.32921  -0.31270  -0.30604  -0.29787
 Alpha  occ. eigenvalues --   -0.29253  -0.29116  -0.28864  -0.28657  -0.28390
 Alpha  occ. eigenvalues --   -0.28241  -0.27748  -0.27641  -0.27432  -0.24802
 Alpha  occ. eigenvalues --   -0.21958  -0.19965
 Alpha virt. eigenvalues --   -0.11431  -0.07640  -0.06225  -0.03342  -0.03067
 Alpha virt. eigenvalues --   -0.02644  -0.01994  -0.01297  -0.00943  -0.00805
 Alpha virt. eigenvalues --   -0.00476   0.00563   0.01200   0.01808   0.02550

 Mulliken charges:
               1
     1  C   -0.390761
     2  C    0.049958
     3  C   -0.195515
     4  C   -0.201572
     5  S    0.335294
     6  C   -0.292740
     7  C    0.001459
     8  C   -0.097410
     9  C   -0.103824
    10  C    0.160235
    11  N   -0.550418
    12  C    0.084726
    13  C   -0.082023
    14  H    0.123507
    15  C   -0.100148
    16  C   -0.101732
    17  C   -0.098974
    18  C   -0.082347
    19  H    0.124354
    20  H    0.110529
    21  H    0.107760
    22  H    0.109921
    23  C    0.083615
    24  C   -0.082696
    25  C   -0.099348
    26  C   -0.102208
    27  C   -0.100031
    28  C   -0.080854
    29  H    0.123734
    30  H    0.110034
    31  H    0.107376
    32  H    0.109468
    33  H    0.123743
    34  C   -0.102812
    35  C   -0.052826
    36  H    0.104480
    37  H    0.130378
    38  H    0.131671
    39  H    0.117706
    40  C    0.005166
    41  C    0.054606
    42  H    0.104918
    43  S    0.374905
    44  C   -0.251634
    45  C   -0.014803
    46  H    0.114820
    47  C   -0.195333
    48  S    0.363876
    49  C   -0.358576
    50  C   -0.074546
    51  C   -0.001620
    52  C    0.052090
    53  C   -0.404910
    54  S    0.416679
    55  C    0.487727
    56  O   -0.352922
    57  O   -0.340483
    58  C   -0.154694
    59  H    0.140564
    60  H    0.142732
    61  H    0.143207
    62  H    0.144057
    63  C    0.009936
    64  C   -0.195421
    65  C    0.094857
    66  N   -0.261515
    67  C    0.459381
    68  O   -0.302119
    69  O   -0.313294
    70  H    0.247191
    71  H    0.118077
    72  C   -0.244629
    73  H    0.142853
    74  H    0.128606
    75  H    0.130155
    76  C   -0.243080
    77  H    0.143442
    78  H    0.129254
    79  H    0.128768
 Sum of Mulliken charges =   0.00000

 Dipole moment (field-independent basis, Debye):
    X=            -13.6816    Y=             -2.7608    Z=             -4.3256  Tot=             14.6123
 Quadrupole moment (field-independent basis, Debye-Ang):
   XX=           -415.5109   YY=           -288.3009   ZZ=           -325.1760
   XY=              7.8574   XZ=            -45.2653   YZ=              5.3927

 Normal termination of Gaussian 09 at Fri Jun 18 18:57:24 2021.
