 Gaussian 16, Revision B.01,
 Gaussian 16:  ES64L-G16RevB.01 20-Dec-2017

 ------------------------
 #N B3LYP/6-311G(d,p) OPT
 ------------------------

 ------------
 C61H46O6N4S3
 ------------
 Symbolic Z-matrix:
 Charge =  0 Multiplicity = 1

 SCF Done:  E(RB3LYP) =  -3251.31186276     A.U. after   16 cycles
 SCF Done:  E(RB3LYP) =  -3251.32123586     A.U. after   15 cycles
 SCF Done:  E(RB3LYP) =  -3251.33869571     A.U. after   13 cycles
 SCF Done:  E(RB3LYP) =  -3251.33665090     A.U. after   13 cycles
 SCF Done:  E(RB3LYP) =  -3251.34534670     A.U. after   14 cycles
 SCF Done:  E(RB3LYP) =  -3251.34660493     A.U. after   13 cycles
 SCF Done:  E(RB3LYP) =  -3251.34734133     A.U. after   13 cycles
 SCF Done:  E(RB3LYP) =  -3251.34905462     A.U. after   12 cycles
 SCF Done:  E(RB3LYP) =  -3251.34808694     A.U. after   15 cycles
 SCF Done:  E(RB3LYP) =  -3251.35194049     A.U. after   13 cycles
 SCF Done:  E(RB3LYP) =  -3251.37802024     A.U. after   11 cycles
 SCF Done:  E(RB3LYP) =  -3251.37819789     A.U. after   12 cycles
 SCF Done:  E(RB3LYP) =  -3251.37840039     A.U. after   10 cycles
 SCF Done:  E(RB3LYP) =  -3251.37852412     A.U. after   10 cycles
 SCF Done:  E(RB3LYP) =  -3251.37855309     A.U. after   10 cycles
 SCF Done:  E(RB3LYP) =  -3251.37857542     A.U. after   11 cycles
 SCF Done:  E(RB3LYP) =  -3251.37858909     A.U. after   10 cycles
 SCF Done:  E(RB3LYP) =  -3251.37858997     A.U. after    8 cycles
 SCF Done:  E(RB3LYP) =  -3251.37859051     A.U. after    8 cycles
 SCF Done:  E(RB3LYP) =  -3251.37859061     A.U. after    7 cycles
 Optimization completed.
    -- Stationary point found.

                         Standard orientation:
 ---------------------------------------------------------------------
 Center     Atomic      Atomic             Coordinates (Angstroms)
 Number     Number       Type             X           Y           Z
 ---------------------------------------------------------------------
      1          8           0        4.548379   -3.456390    0.048757
      2          6           0        4.495974   -2.232293    0.111329
      3          7           0        5.650559   -1.445633    0.215108
      4          6           0        6.880552   -2.107083    0.719495
      5          6           0        7.688813   -2.982492   -0.261179
      6          8           0        6.987214   -3.755023   -1.100653
      7          8           0        8.884486   -3.009053   -0.205071
      8          6           0        3.281420   -1.425015    0.126974
      9         16           0        3.688887    0.281350    0.261605
     10          6           0        5.431120   -0.077392    0.226969
     11          6           0        6.321355    0.957557    0.193354
     12         16           0        5.811605    2.637526    0.479978
     13          6           0        7.410915    3.268440    0.052486
     14          7           0        8.238961    2.238837   -0.293438
     15          6           0        9.617996    2.461583   -0.724491
     16          6           0        7.712363    0.925887   -0.267917
     17          8           0        8.348396   -0.038231   -0.637678
     18         16           0        7.775517    4.874450    0.099107
     19          6           0        2.051824   -2.003991    0.057602
     20          6           0        0.764624   -1.402453    0.079371
     21          6           0        0.370721   -0.067485    0.131352
     22          6           0       -1.015832    0.117310    0.138557
     23          6           0       -1.743768   -1.067726    0.091447
     24          6           0       -3.166835   -1.290235    0.082804
     25          6           0       -4.104019   -0.315539    0.142208
     26          6           0       -5.547555   -0.478346    0.132353
     27          6           0       -6.359563    0.671466    0.225352
     28          6           0       -7.734112    0.578341    0.239909
     29          8           0       -8.457019    1.743108    0.389438
     30          6           0       -9.783412    1.712948    0.000405
     31          6           0      -10.409146    2.920132   -0.251673
     32          6           0      -11.759324    2.943889   -0.607821
     33          6           0      -12.455708    1.749431   -0.727361
     34          6           0      -11.816940    0.530584   -0.486952
     35          6           0      -10.475014    0.494210   -0.100744
     36          7           0       -9.779453   -0.695176    0.191629
     37          6           0      -10.491409   -1.957196    0.277252
     38          6           0       -8.386466   -0.666361    0.148671
     39          6           0       -7.582707   -1.809174    0.024659
     40          6           0       -6.197387   -1.717387    0.027332
     41         16           0       -0.659320   -2.430969    0.035992
     42          1           0        6.566028   -2.755721    1.543766
     43          1           0        7.557310   -1.352822    1.096617
     44          1           0        6.049193   -3.790541   -0.819471
     45          1           0       10.178964    2.951666    0.071855
     46          1           0        9.631933    3.099163   -1.609117
     47          1           0       10.042536    1.486119   -0.950711
     48          1           0        2.093526   -3.087251   -0.022421
     49          1           0        1.069148    0.757447    0.152456
     50          1           0       -1.481791    1.092474    0.171471
     51          1           0       -3.481968   -2.327329    0.025860
     52          1           0       -3.766239    0.715568    0.206843
     53          1           0       -5.917414    1.657629    0.306324
     54          1           0       -9.829420    3.829613   -0.152907
     55          1           0      -12.250976    3.890818   -0.793544
     56          1           0      -13.500300    1.750857   -1.014758
     57          1           0      -12.371742   -0.390033   -0.606739
     58          1           0      -11.461897   -1.791341    0.744507
     59          1           0       -9.933572   -2.645065    0.912243
     60          1           0      -10.647542   -2.427571   -0.702694
     61          1           0       -8.042791   -2.781928   -0.082429
     62          1           0       -5.622995   -2.630597   -0.065963
 ---------------------------------------------------------------------

 The electronic state is 1-A.
 Alpha  occ. eigenvalues --  -88.91288 -88.90203 -88.89860 -88.82275 -19.18349
 Alpha  occ. eigenvalues --  -19.14252 -19.13857 -19.12073 -19.09144 -14.41159
 Alpha  occ. eigenvalues --  -14.39416 -14.37752 -10.32115 -10.31047 -10.30177
 Alpha  occ. eigenvalues --  -10.30163 -10.29595 -10.25791 -10.25383 -10.24787
 Alpha  occ. eigenvalues --  -10.24397 -10.24306 -10.24158 -10.24097 -10.23979
 Alpha  occ. eigenvalues --  -10.23850 -10.23181 -10.23068 -10.21467 -10.21225
 Alpha  occ. eigenvalues --  -10.20779 -10.20600 -10.20541 -10.20408 -10.19947
 Alpha  occ. eigenvalues --  -10.19740 -10.19545 -10.19324 -10.18918 -10.18770
 Alpha  occ. eigenvalues --  -10.18623  -7.99943  -7.98863  -7.98497  -7.91026
 Alpha  occ. eigenvalues --   -5.96294  -5.95929  -5.95386  -5.95149  -5.94862
 Alpha  occ. eigenvalues --   -5.94788  -5.94481  -5.94449  -5.93929  -5.87393
 Alpha  occ. eigenvalues --   -5.86980  -5.86480  -1.11027  -1.10177  -1.08575
 Alpha  occ. eigenvalues --   -1.08161  -1.01344  -1.01045  -1.00131  -0.99466
 Alpha  occ. eigenvalues --   -0.92034  -0.89454  -0.88218  -0.86842  -0.86489
 Alpha  occ. eigenvalues --   -0.83332  -0.81566  -0.80003  -0.79167  -0.78243
 Alpha  occ. eigenvalues --   -0.77564  -0.77062  -0.76331  -0.75997  -0.75146
 Alpha  occ. eigenvalues --   -0.73026  -0.72483  -0.70571  -0.68201  -0.67397
 Alpha  occ. eigenvalues --   -0.65136  -0.63939  -0.63733  -0.63036  -0.62589
 Alpha  occ. eigenvalues --   -0.61495  -0.59914  -0.59690  -0.59060  -0.58174
 Alpha  occ. eigenvalues --   -0.57041  -0.55384  -0.54446  -0.53461  -0.53359
 Alpha  occ. eigenvalues --   -0.51997  -0.51622  -0.51415  -0.50166  -0.49952
 Alpha  occ. eigenvalues --   -0.49852  -0.49519  -0.49266  -0.48326  -0.48106
 Alpha  occ. eigenvalues --   -0.47145  -0.46915  -0.46704  -0.46452  -0.45989
 Alpha  occ. eigenvalues --   -0.45886  -0.45603  -0.44896  -0.44597  -0.43970
 Alpha  occ. eigenvalues --   -0.43324  -0.43047  -0.42637  -0.42244  -0.42134
 Alpha  occ. eigenvalues --   -0.41795  -0.40989  -0.40676  -0.40273  -0.40159
 Alpha  occ. eigenvalues --   -0.40068  -0.39835  -0.39674  -0.39236  -0.38438
 Alpha  occ. eigenvalues --   -0.38153  -0.38015  -0.37952  -0.37613  -0.37205
 Alpha  occ. eigenvalues --   -0.37090  -0.36668  -0.35708  -0.35149  -0.32557
 Alpha  occ. eigenvalues --   -0.31967  -0.31176  -0.30664  -0.29840  -0.29612
 Alpha  occ. eigenvalues --   -0.28692  -0.28301  -0.27532  -0.26759  -0.26379
 Alpha  occ. eigenvalues --   -0.25721  -0.23921  -0.23694  -0.22066  -0.19655
 Alpha virt. eigenvalues --   -0.11969  -0.08620  -0.06474  -0.04363  -0.03397
 Alpha virt. eigenvalues --   -0.02955  -0.02321  -0.02107  -0.01725  -0.00452
 Alpha virt. eigenvalues --    0.00870   0.01337   0.02029   0.02160   0.02267

 Mulliken charges:
               1
     1  O   -0.407553
     2  C    0.538725
     3  N   -0.436164
     4  C   -0.185356
     5  C    0.393073
     6  O   -0.307444
     7  O   -0.309377
     8  C   -0.410171
     9  S    0.344113
    10  C    0.123285
    11  C   -0.428387
    12  S    0.306870
    13  C   -0.109987
    14  N   -0.388749
    15  C   -0.170241
    16  C    0.541550
    17  O   -0.329840
    18  S   -0.121197
    19  C    0.029302
    20  C   -0.275479
    21  C   -0.015550
    22  C   -0.013626
    23  C   -0.251683
    24  C   -0.071991
    25  C   -0.043309
    26  C   -0.078697
    27  C   -0.080590
    28  C    0.134322
    29  O   -0.346413
    30  C    0.137071
    31  C   -0.095811
    32  C   -0.092984
    33  C   -0.096883
    34  C   -0.112553
    35  C    0.228869
    36  N   -0.549920
    37  C   -0.170771
    38  C    0.260189
    39  C   -0.110347
    40  C   -0.053847
    41  S    0.309581
    42  H    0.166372
    43  H    0.174668
    44  H    0.259463
    45  H    0.154617
    46  H    0.153657
    47  H    0.153721
    48  H    0.137701
    49  H    0.120063
    50  H    0.103068
    51  H    0.100651
    52  H    0.096628
    53  H    0.098201
    54  H    0.107532
    55  H    0.098140
    56  H    0.095700
    57  H    0.107473
    58  H    0.134360
    59  H    0.131713
    60  H    0.128143
    61  H    0.107682
    62  H    0.088416
 Sum of Mulliken charges =  -0.00000

 Dipole moment (field-independent basis, Debye):
    X=            -14.6419    Y=             -0.6578    Z=              1.4067  Tot=             14.7240
 Quadrupole moment (field-independent basis, Debye-Ang):
   XX=           -263.7010   YY=           -284.9348   ZZ=           -272.8148
   XY=             33.2307   XZ=             15.5116   YZ=             -9.4218

 Normal termination of Gaussian 16 at Tue Aug  3 20:06:52 2021.
