 Gaussian 16, Revision B.01,
 Gaussian 16:  ES64L-G16RevB.01 20-Dec-2017

 ------------------------------------------
 #N B3LYP/6-311G(d,p) OPT Geom=Connectivity
 ------------------------------------------

 ------------
 C61H46O6N4S3
 ------------
 Symbolic Z-matrix:
 Charge =  0 Multiplicity = 1

 SCF Done:  E(RB3LYP) =  -4217.84222692     A.U. after   18 cycles
 SCF Done:  E(RB3LYP) =  -4217.84378984     A.U. after   14 cycles
 SCF Done:  E(RB3LYP) =  -4217.84465966     A.U. after   16 cycles
 SCF Done:  E(RB3LYP) =  -4217.84507974     A.U. after   13 cycles
 SCF Done:  E(RB3LYP) =  -4217.84529092     A.U. after   12 cycles
 SCF Done:  E(RB3LYP) =  -4217.84538303     A.U. after   12 cycles
 SCF Done:  E(RB3LYP) =  -4217.84545224     A.U. after   13 cycles
 SCF Done:  E(RB3LYP) =  -4217.84547935     A.U. after   11 cycles
 SCF Done:  E(RB3LYP) =  -4217.84549387     A.U. after   11 cycles
 SCF Done:  E(RB3LYP) =  -4217.84549832     A.U. after   12 cycles
 SCF Done:  E(RB3LYP) =  -4217.84550160     A.U. after   12 cycles
 SCF Done:  E(RB3LYP) =  -4217.84550268     A.U. after   11 cycles
 SCF Done:  E(RB3LYP) =  -4217.84550306     A.U. after   11 cycles
 SCF Done:  E(RB3LYP) =  -4217.84550325     A.U. after    9 cycles
 SCF Done:  E(RB3LYP) =  -4217.84550331     A.U. after    8 cycles
 SCF Done:  E(RB3LYP) =  -4217.84550332     A.U. after   10 cycles
 SCF Done:  E(RB3LYP) =  -4217.84550332     A.U. after   10 cycles
 SCF Done:  E(RB3LYP) =  -4217.84550332     A.U. after    8 cycles
 SCF Done:  E(RB3LYP) =  -4217.84550331     A.U. after   10 cycles
 Optimization completed on the basis of negligible forces.
    -- Stationary point found.

                         Standard orientation:
 ---------------------------------------------------------------------
 Center     Atomic      Atomic             Coordinates (Angstroms)
 Number     Number       Type             X           Y           Z
 ---------------------------------------------------------------------
      1          6           0       -7.338112   -1.765451   -2.514441
      2          6           0       -8.480808   -1.169623   -1.693285
      3          6           0       -7.985729   -0.430157   -0.628046
      4          6           0       -6.552659   -0.458513   -0.654366
      5         16           0       -5.233552    0.151485    0.274371
      6          6           0       -4.077648   -0.626234   -0.821705
      7          6           0       -4.744711   -1.320281   -1.825672
      8          6           0       -6.140673   -1.225253   -1.733929
      9          1           0       -4.223388   -1.882313   -2.588411
     10          6           0       -2.637370   -0.503133   -0.659191
     11          6           0       -1.744761   -0.978800   -1.607613
     12          6           0       -0.341255   -0.887167   -1.477857
     13          6           0        0.302802   -0.311234   -0.396791
     14          6           0       -0.574443    0.212809    0.614543
     15          7           0       -0.198353    0.805718    1.750740
     16         16           0       -1.557460    1.207983    2.567659
     17          7           0       -2.679391    0.640019    1.515976
     18          6           0       -2.021867    0.114154    0.483753
     19          6           0        1.772363   -0.251927   -0.304789
     20          6           0        2.447092    0.822250    0.300961
     21          6           0        3.831508    0.877068    0.340730
     22          6           0        4.612111   -0.144917   -0.223225
     23          6           0        3.947808   -1.226278   -0.825108
     24          6           0        2.563495   -1.274263   -0.857915
     25          1           0        2.086256   -2.136132   -1.309873
     26          1           0        4.523857   -2.032676   -1.260787
     27          7           0        6.021321   -0.088666   -0.183252
     28          6           0        6.790312   -1.275900   -0.034952
     29          6           0        7.941718   -1.480556   -0.806248
     30          6           0        8.703346   -2.631390   -0.653597
     31          6           0        8.339725   -3.630595    0.263273
     32          6           0        7.184285   -3.413923    1.030145
     33          6           0        6.425497   -2.258423    0.893662
     34          1           0        5.549502   -2.109653    1.513388
     35          1           0        6.890942   -4.149559    1.770888
     36          6           0        9.112427   -4.890143    0.402536
     37          6           0        8.444148   -6.123743    0.508622
     38          6           0        9.117150   -7.327795    0.622189
     39          6           0       10.516450   -7.344749    0.628517
     40          6           0       11.211979   -6.139550    0.531707
     41          6           0       10.516034   -4.934097    0.420324
     42          8           0       11.274722   -3.785571    0.302693
     43          6           0       11.435471   -3.047052    1.516919
     44          1           0       11.941087   -3.654031    2.276693
     45          1           0       12.053412   -2.183298    1.272506
     46          1           0       10.471617   -2.705713    1.906946
     47          1           0       12.292190   -6.093673    0.529855
     48          8           0       11.102455   -8.570153    0.728873
     49          6           0       12.521441   -8.643918    0.725381
     50          1           0       12.764047   -9.702185    0.805719
     51          1           0       12.941960   -8.245409   -0.204494
     52          1           0       12.953578   -8.108200    1.577991
     53          1           0        8.584584   -8.268412    0.686941
     54          1           0        7.360796   -6.131682    0.471833
     55          1           0        9.586984   -2.767252   -1.262788
     56          1           0        8.234699   -0.732125   -1.532647
     57          6           0        6.693464    1.164298   -0.282954
     58          6           0        7.731997    1.487815    0.598454
     59          6           0        8.394370    2.703594    0.497105
     60          6           0        8.042241    3.648424   -0.478956
     61          6           0        6.993721    3.314921   -1.349566
     62          6           0        6.334823    2.094525   -1.264029
     63          1           0        5.531415    1.862759   -1.952952
     64          1           0        6.683370    4.027483   -2.105433
     65          6           0        8.762561    4.937332   -0.637516
     66          6           0        9.091827    5.772093    0.450711
     67          6           0        9.752397    6.990552    0.254415
     68          6           0       10.099383    7.397669   -1.037176
     69          6           0        9.784784    6.587894   -2.129123
     70          6           0        9.129111    5.385888   -1.913805
     71          1           0        8.904932    4.752772   -2.764635
     72          1           0       10.068287    6.911307   -3.122350
     73          8           0       10.746924    8.563266   -1.321113
     74          6           0       11.097429    9.430782   -0.253798
     75          1           0       11.784343    8.947142    0.450151
     76          1           0       11.597911   10.280979   -0.714352
     77          1           0       10.211679    9.784450    0.286218
     78          1           0        9.987825    7.615379    1.101411
     79          8           0        8.718483    5.334796    1.688963
     80          6           0        8.943397    6.164640    2.817874
     81          1           0       10.012004    6.342673    2.983812
     82          1           0        8.424409    7.124722    2.721133
     83          1           0        8.535430    5.621343    3.668748
     84          1           0        9.192421    2.929693    1.191304
     85          1           0        8.021158    0.776274    1.362658
     86          1           0        4.319271    1.719197    0.815060
     87          1           0        1.878777    1.621139    0.755680
     88          1           0        0.258007   -1.267816   -2.296253
     89          1           0       -2.126658   -1.431092   -2.514192
     90         16           0       -9.241061    0.260510    0.329981
     91          6           0      -10.475901   -0.460865   -0.715778
     92          6           0       -9.883417   -1.184942   -1.741430
     93          1           0      -10.462768   -1.721627   -2.480858
     94          6           0      -11.888832   -0.262408   -0.450141
     95          6           0      -12.860014   -0.578141   -1.424033
     96          6           0      -14.204572   -0.400271   -1.169670
     97          6           0      -14.667503    0.109370    0.063445
     98          6           0      -13.695744    0.432178    1.035219
     99          6           0      -12.351291    0.247819    0.783014
    100          1           0      -11.639007    0.490034    1.563080
    101          1           0      -13.992383    0.823574    1.998462
    102          6           0      -16.092017    0.259840    0.226474
    103          6           0      -16.850848    0.705196    1.266071
    104          6           0      -16.348138    1.153087    2.516153
    105          7           0      -16.029139    1.534578    3.563123
    106          6           0      -18.346847    0.724816    1.077931
    107          8           0      -18.879963    0.367151    0.061899
    108          8           0      -19.079409    1.170431    2.120439
    109          1           0      -18.516898    1.422758    2.866285
    110          1           0      -16.692797   -0.032825   -0.630967
    111          1           0      -14.928239   -0.648608   -1.938547
    112          1           0      -12.551853   -0.947672   -2.393800
    113          6           0       -7.374331   -3.308569   -2.496278
    114          1           0       -7.365921   -3.688467   -1.472814
    115          1           0       -8.275575   -3.678007   -2.993366
    116          1           0       -6.507574   -3.718380   -3.022077
    117          6           0       -7.351494   -1.241249   -3.966144
    118          1           0       -7.327033   -0.149992   -3.988795
    119          1           0       -6.484217   -1.615883   -4.516732
    120          1           0       -8.252116   -1.576581   -4.487968
 ---------------------------------------------------------------------

 The electronic state is 1-A.
 Alpha  occ. eigenvalues --  -88.94310 -88.89521 -88.88861 -19.16729 -19.15724
 Alpha  occ. eigenvalues --  -19.15568 -19.15493 -19.13555 -19.10571 -14.35475
 Alpha  occ. eigenvalues --  -14.35358 -14.34859 -14.32777 -10.31312 -10.24255
 Alpha  occ. eigenvalues --  -10.23922 -10.23847 -10.23787 -10.23680 -10.23395
 Alpha  occ. eigenvalues --  -10.23257 -10.23236 -10.22999 -10.22870 -10.22677
 Alpha  occ. eigenvalues --  -10.22665 -10.22659 -10.22590 -10.22498 -10.22212
 Alpha  occ. eigenvalues --  -10.22103 -10.21952 -10.21913 -10.21752 -10.21723
 Alpha  occ. eigenvalues --  -10.21512 -10.21452 -10.20905 -10.20622 -10.20218
 Alpha  occ. eigenvalues --  -10.19942 -10.19931 -10.19744 -10.19709 -10.19670
 Alpha  occ. eigenvalues --  -10.19438 -10.19321 -10.19226 -10.19165 -10.18796
 Alpha  occ. eigenvalues --  -10.18454 -10.18294 -10.18102 -10.18071 -10.18019
 Alpha  occ. eigenvalues --  -10.18000 -10.17855 -10.17817 -10.17685 -10.17647
 Alpha  occ. eigenvalues --  -10.17629 -10.17556 -10.17535 -10.17485 -10.17391
 Alpha  occ. eigenvalues --  -10.17346 -10.17329 -10.17319 -10.17316 -10.17280
 Alpha  occ. eigenvalues --  -10.17257 -10.17174 -10.16976 -10.16462  -8.02574
 Alpha  occ. eigenvalues --   -7.98124  -7.97394  -5.98989  -5.98408  -5.98178
 Alpha  occ. eigenvalues --   -5.94428  -5.94062  -5.93705  -5.93692  -5.93320
 Alpha  occ. eigenvalues --   -5.92964  -1.10997  -1.07651  -1.07394  -1.07361
 Alpha  occ. eigenvalues --   -1.05428  -1.03243  -1.02870  -0.97264  -0.93148
 Alpha  occ. eigenvalues --   -0.93083  -0.90792  -0.89920  -0.88774  -0.87752
 Alpha  occ. eigenvalues --   -0.87122  -0.86825  -0.85903  -0.85299  -0.84764
 Alpha  occ. eigenvalues --   -0.84174  -0.83506  -0.80337  -0.79495  -0.78895
 Alpha  occ. eigenvalues --   -0.78078  -0.77714  -0.77523  -0.76963  -0.76252
 Alpha  occ. eigenvalues --   -0.76011  -0.75559  -0.75217  -0.75185  -0.75025
 Alpha  occ. eigenvalues --   -0.74531  -0.74482  -0.74054  -0.72816  -0.72217
 Alpha  occ. eigenvalues --   -0.71174  -0.70639  -0.70554  -0.68999  -0.68718
 Alpha  occ. eigenvalues --   -0.67774  -0.66183  -0.64288  -0.64207  -0.63861
 Alpha  occ. eigenvalues --   -0.63293  -0.63205  -0.62713  -0.62127  -0.62101
 Alpha  occ. eigenvalues --   -0.61772  -0.61099  -0.60726  -0.60252  -0.60045
 Alpha  occ. eigenvalues --   -0.59627  -0.58674  -0.58441  -0.57820  -0.57285
 Alpha  occ. eigenvalues --   -0.56062  -0.55717  -0.55341  -0.54465  -0.54430
 Alpha  occ. eigenvalues --   -0.53958  -0.53743  -0.53535  -0.52036  -0.51782
 Alpha  occ. eigenvalues --   -0.51528  -0.50949  -0.50813  -0.50145  -0.50027
 Alpha  occ. eigenvalues --   -0.49481  -0.49236  -0.48925  -0.48652  -0.48316
 Alpha  occ. eigenvalues --   -0.48272  -0.47806  -0.47754  -0.47685  -0.47126
 Alpha  occ. eigenvalues --   -0.46679  -0.46295  -0.46075  -0.46061  -0.45985
 Alpha  occ. eigenvalues --   -0.45754  -0.45646  -0.45508  -0.45476  -0.45257
 Alpha  occ. eigenvalues --   -0.44977  -0.44876  -0.44716  -0.44459  -0.44373
 Alpha  occ. eigenvalues --   -0.44162  -0.43819  -0.43532  -0.42973  -0.42796
 Alpha  occ. eigenvalues --   -0.42689  -0.42466  -0.42403  -0.42234  -0.42128
 Alpha  occ. eigenvalues --   -0.41911  -0.41692  -0.41109  -0.41041  -0.40919
 Alpha  occ. eigenvalues --   -0.40515  -0.40322  -0.39873  -0.39558  -0.39391
 Alpha  occ. eigenvalues --   -0.39298  -0.39203  -0.38911  -0.38775  -0.38662
 Alpha  occ. eigenvalues --   -0.38613  -0.38273  -0.38172  -0.37856  -0.37761
 Alpha  occ. eigenvalues --   -0.37745  -0.37491  -0.37255  -0.37016  -0.36870
 Alpha  occ. eigenvalues --   -0.36835  -0.36755  -0.36393  -0.36205  -0.35573
 Alpha  occ. eigenvalues --   -0.35529  -0.35489  -0.35272  -0.35029  -0.34746
 Alpha  occ. eigenvalues --   -0.34691  -0.34620  -0.34375  -0.34169  -0.33838
 Alpha  occ. eigenvalues --   -0.33476  -0.33462  -0.32806  -0.32534  -0.32333
 Alpha  occ. eigenvalues --   -0.31421  -0.30779  -0.30469  -0.29683  -0.28664
 Alpha  occ. eigenvalues --   -0.28348  -0.28013  -0.27825  -0.27708  -0.27117
 Alpha  occ. eigenvalues --   -0.27030  -0.26521  -0.26499  -0.26161  -0.25618
 Alpha  occ. eigenvalues --   -0.25445  -0.25259  -0.24692  -0.23924  -0.22343
 Alpha  occ. eigenvalues --   -0.21283  -0.19854  -0.18277
 Alpha virt. eigenvalues --   -0.11230  -0.09933  -0.06252  -0.03852  -0.03560
 Alpha virt. eigenvalues --   -0.03136  -0.02583  -0.02375  -0.01149  -0.01118
 Alpha virt. eigenvalues --   -0.00807  -0.00542  -0.00412  -0.00329  -0.00310

 Mulliken charges:
               1
     1  C   -0.273657
     2  C    0.019283
     3  C   -0.174444
     4  C   -0.197203
     5  S    0.352219
     6  C   -0.269934
     7  C    0.014420
     8  C    0.031142
     9  H    0.087683
    10  C    0.063091
    11  C   -0.042300
    12  C   -0.076522
    13  C    0.012319
    14  C    0.105909
    15  N   -0.480151
    16  S    0.556343
    17  N   -0.507892
    18  C    0.110395
    19  C   -0.028436
    20  C   -0.030873
    21  C   -0.106892
    22  C    0.161343
    23  C   -0.102694
    24  C   -0.069473
    25  H    0.092364
    26  H    0.114252
    27  N   -0.504104
    28  C    0.108276
    29  C   -0.082082
    30  C   -0.045445
    31  C   -0.101091
    32  C   -0.073450
    33  C   -0.079307
    34  H    0.108833
    35  H    0.094483
    36  C   -0.024233
    37  C   -0.059810
    38  C   -0.088212
    39  C    0.186079
    40  C   -0.097896
    41  C    0.113614
    42  O   -0.387015
    43  C   -0.108355
    44  H    0.095453
    45  H    0.116261
    46  H    0.116263
    47  H    0.102170
    48  O   -0.347875
    49  C   -0.132811
    50  H    0.130267
    51  H    0.114137
    52  H    0.110246
    53  H    0.099879
    54  H    0.095946
    55  H    0.105860
    56  H    0.108144
    57  C    0.093938
    58  C   -0.081943
    59  C   -0.027659
    60  C   -0.021721
    61  C   -0.069041
    62  C   -0.075187
    63  H    0.104307
    64  H    0.095653
    65  C   -0.098452
    66  C    0.196593
    67  C   -0.179560
    68  C    0.177904
    69  C   -0.091066
    70  C   -0.064715
    71  H    0.093283
    72  H    0.097318
    73  O   -0.348313
    74  C   -0.133167
    75  H    0.109216
    76  H    0.131537
    77  H    0.109401
    78  H    0.115948
    79  O   -0.359114
    80  C   -0.132549
    81  H    0.108467
    82  H    0.111391
    83  H    0.132351
    84  H    0.091133
    85  H    0.102278
    86  H    0.115965
    87  H    0.105957
    88  H    0.097193
    89  H    0.090101
    90  S    0.319103
    91  C   -0.297470
    92  C    0.026651
    93  H    0.093484
    94  C    0.035680
    95  C   -0.041093
    96  C   -0.059027
    97  C   -0.087630
    98  C   -0.046499
    99  C   -0.097735
   100  H    0.109634
   101  H    0.127609
   102  C    0.052805
   103  C   -0.205627
   104  C   -0.003626
   105  N   -0.237440
   106  C    0.462340
   107  O   -0.318414
   108  O   -0.300183
   109  H    0.255914
   110  H    0.129472
   111  H    0.099927
   112  H    0.094812
   113  C   -0.211132
   114  H    0.122820
   115  H    0.107878
   116  H    0.108492
   117  C   -0.210431
   118  H    0.122441
   119  H    0.108161
   120  H    0.107123
 Sum of Mulliken charges =  -0.00000

 Dipole moment (field-independent basis, Debye):
    X=             13.1330    Y=             -0.3264    Z=             -1.1670  Tot=             13.1888
 Quadrupole moment (field-independent basis, Debye-Ang):
   XX=           -593.5231   YY=           -404.5128   ZZ=           -433.9132
   XY=             43.6243   XZ=             76.8365   YZ=             22.5159

 Normal termination of Gaussian 16 at Fri Jun  4 03:48:14 2021.
