 Gaussian 16, Revision B.01,
 Gaussian 16:  ES64L-G16RevB.01 20-Dec-2017

 -------------------------------------
 #N TD(NStates=10) PBE1PBE/6-311G(d,p)
 -------------------------------------

 ----
 Name
 ----
 Symbolic Z-matrix:
 Charge =  0 Multiplicity = 1

                         Standard orientation:
 ---------------------------------------------------------------------
 Center     Atomic      Atomic             Coordinates (Angstroms)
 Number     Number       Type             X           Y           Z
 ---------------------------------------------------------------------
      1          6           0        7.546561   -1.280310    2.683097
      2          6           0        8.592842   -0.800254    1.678459
      3          6           0        7.982348   -0.250768    0.559527
      4          6           0        6.560027   -0.312166    0.721275
      5         16           0        5.139569    0.126570   -0.154442
      6          6           0        4.110677   -0.497597    1.154165
      7          6           0        4.886064   -1.009111    2.184047
      8          6           0        6.267212   -0.903068    1.938473
      9          1           0        4.434723   -1.436566    3.066072
     10          6           0        2.664740   -0.421969    1.036834
     11          6           0        2.033004    0.180668   -0.038723
     12          6           0        0.630861    0.259925   -0.188264
     13          6           0       -0.271476   -0.248550    0.727084
     14          6           0        0.325305   -0.886039    1.870252
     15          7           0       -0.341718   -1.432283    2.889414
     16         16           0        0.764611   -2.009353    3.945696
     17          7           0        2.137532   -1.584801    3.156203
     18          6           0        1.773595   -0.971653    2.029089
     19          6           0       -1.727905   -0.129793    0.534743
     20          6           0       -2.627700   -1.127090    0.949407
     21          6           0       -3.989468   -1.015240    0.716343
     22          6           0       -4.520458    0.105162    0.056672
     23          6           0       -3.630876    1.111584   -0.353867
     24          6           0       -2.271351    0.992571   -0.114460
     25          1           0       -1.618590    1.799849   -0.426000
     26          1           0       -4.012512    1.990779   -0.857038
     27          7           0       -5.905965    0.218076   -0.183178
     28          6           0       -6.541714    1.490986   -0.162595
     29          6           0       -7.452277    1.849593   -1.164607
     30          6           0       -8.080003    3.087880   -1.142777
     31          6           0       -7.814461    4.022365   -0.129081
     32          6           0       -6.902809    3.649608    0.871239
     33          6           0       -6.281857    2.406948    0.863770
     34          1           0       -5.595470    2.138317    1.657746
     35          1           0       -6.698462    4.333679    1.687379
     36          6           0       -8.431479    5.372355   -0.123591
     37          6           0       -7.655440    6.504999    0.184186
     38          6           0       -8.175336    7.787662    0.179345
     39          6           0       -9.520917    7.991698   -0.146516
     40          6           0      -10.322163    6.890794   -0.449187
     41          6           0       -9.781010    5.603663   -0.436548
     42          8           0      -10.630860    4.567494   -0.772508
     43          6           0      -11.174607    3.854858    0.341958
     44          1           0      -11.768846    4.521873    0.977035
     45          1           0      -11.818644    3.079567   -0.072520
     46          1           0      -10.385781    3.390238    0.941552
     47          1           0      -11.366991    6.989955   -0.708897
     48          8           0       -9.950727    9.284025   -0.144623
     49          6           0      -11.303899    9.547345   -0.489284
     50          1           0      -11.419341   10.628514   -0.434744
     51          1           0      -11.531966    9.209206   -1.506079
     52          1           0      -11.997205    9.073730    0.214791
     53          1           0       -7.557214    8.648199    0.402949
     54          1           0       -6.602998    6.368378    0.405019
     55          1           0       -8.776499    3.344012   -1.929784
     56          1           0       -7.660802    1.152742   -1.967442
     57          6           0       -6.684190   -0.938764   -0.477466
     58          6           0       -7.924033   -1.137885    0.141914
     59          6           0       -8.692136   -2.255911   -0.153082
     60          6           0       -8.251760   -3.224345   -1.068286
     61          6           0       -7.002848   -3.017724   -1.673254
     62          6           0       -6.234035   -1.894297   -1.394612
     63          1           0       -5.276141   -1.759105   -1.882366
     64          1           0       -6.622935   -3.753594   -2.372990
     65          6           0       -9.074355   -4.404066   -1.438322
     66          6           0       -9.741533   -5.204812   -0.488005
     67          6           0      -10.490422   -6.320690   -0.879745
     68          6           0      -10.589114   -6.656541   -2.233187
     69          6           0       -9.938791   -5.878317   -3.191525
     70          6           0       -9.200749   -4.778553   -2.783035
     71          1           0       -8.714408   -4.166883   -3.534234
     72          1           0      -10.032331   -6.144342   -4.236502
     73          8           0      -11.299441   -7.720324   -2.704903
     74          6           0      -11.985477   -8.550716   -1.780708
     75          1           0      -12.745332   -7.991399   -1.222891
     76          1           0      -12.473802   -9.319260   -2.377619
     77          1           0      -11.294191   -9.027627   -1.076442
     78          1           0      -10.986088   -6.922385   -0.134488
     79          8           0       -9.602716   -4.840751    0.820595
     80          6           0      -10.183472   -5.647349    1.833286
     81          1           0      -11.275635   -5.680701    1.748293
     82          1           0       -9.784755   -6.667732    1.813423
     83          1           0       -9.912805   -5.176009    2.776807
     84          1           0       -9.646101   -2.386068    0.339831
     85          1           0       -8.285881   -0.405206    0.853395
     86          1           0       -4.654626   -1.802552    1.047713
     87          1           0       -2.255914   -1.998856    1.468874
     88          1           0        0.252500    0.727024   -1.089395
     89          1           0        2.635999    0.614377   -0.828430
     90         16           0        9.123789    0.305543   -0.605419
     91          6           0       10.469575   -0.212829    0.424075
     92          6           0        9.994005   -0.777274    1.599899
     93          1           0       10.653402   -1.174492    2.359953
     94          6           0       11.846087   -0.026495    0.002967
     95          6           0       12.911052   -0.188287    0.914530
     96          6           0       14.220700   -0.019765    0.513571
     97          6           0       14.553611    0.327482   -0.814183
     98          6           0       13.488229    0.495374   -1.724850
     99          6           0       12.178791    0.320031   -1.325168
    100          1           0       11.391855    0.441040   -2.060468
    101          1           0       13.683793    0.758683   -2.755101
    102          6           0       15.951965    0.484358   -1.128773
    103          6           0       16.598111    0.801101   -2.284978
    104          6           0       15.969472    1.065192   -3.530449
    105          7           0       15.544201    1.294906   -4.583914
    106          6           0       18.103574    0.878389   -2.242749
    107          8           0       18.738018    0.672509   -1.243038
    108          8           0       18.723307    1.195286   -3.399137
    109          1           0       18.087752    1.332222   -4.115879
    110          1           0       16.637229    0.323158   -0.300363
    111          1           0       15.018492   -0.148074    1.237166
    112          1           0       12.704703   -0.430789    1.949174
    113          6           0        7.637268   -2.804247    2.911604
    114          1           0        7.558605   -3.347206    1.967676
    115          1           0        8.589316   -3.066421    3.381452
    116          1           0        6.831512   -3.140233    3.569513
    117          6           0        7.660911   -0.524229    4.024198
    118          1           0        7.602613    0.555306    3.871714
    119          1           0        6.853024   -0.819794    4.698782
    120          1           0        8.611489   -0.752222    4.514437
 ---------------------------------------------------------------------

 SCF Done:  E(RPBE1PBE) =  -4213.87706833     A.U. after   18 cycles

 Excitation energies and oscillator strengths:

 Excited State   1:      Singlet-A      1.8293 eV  677.77 nm  f=1.1388  <S**2>=0.000
     268 -> 269        0.65968
     268 -> 270        0.22812
 This state for optimization and/or second-order correction.
 Total Energy, E(TD-HF/TD-DFT) =  -4213.80984279
 Copying the excited state density for this state as the 1-particle RhoCI density.

 Excited State   2:      Singlet-A      2.1954 eV  564.76 nm  f=0.0694  <S**2>=0.000
     267 -> 269       -0.22295
     267 -> 270       -0.12114
     268 -> 269       -0.24444
     268 -> 270        0.60692

 Excited State   3:      Singlet-A      2.3028 eV  538.40 nm  f=0.7950  <S**2>=0.000
     267 -> 269        0.64247
     267 -> 270        0.11609
     268 -> 270        0.26172

 Excited State   4:      Singlet-A      2.6193 eV  473.34 nm  f=0.0972  <S**2>=0.000
     267 -> 269       -0.14967
     267 -> 270        0.66892

 Excited State   5:      Singlet-A      2.7842 eV  445.31 nm  f=0.0175  <S**2>=0.000
     266 -> 269        0.68960
     266 -> 270        0.14022

 Excited State   6:      Singlet-A      3.0295 eV  409.26 nm  f=0.0786  <S**2>=0.000
     264 -> 269        0.10791
     265 -> 269        0.65935
     265 -> 270        0.15714
     268 -> 271        0.11821

 Excited State   7:      Singlet-A      3.1387 eV  395.01 nm  f=0.2260  <S**2>=0.000
     266 -> 270        0.48251
     267 -> 271        0.13975
     268 -> 271       -0.45482

 Excited State   8:      Singlet-A      3.1497 eV  393.64 nm  f=0.1357  <S**2>=0.000
     265 -> 269       -0.13544
     266 -> 269       -0.10091
     266 -> 270        0.48875
     267 -> 271       -0.11176
     268 -> 271        0.44503

 Excited State   9:      Singlet-A      3.3719 eV  367.70 nm  f=0.0140  <S**2>=0.000
     264 -> 269        0.26998
     264 -> 270        0.16367
     265 -> 269       -0.18684
     265 -> 270        0.58574

 Excited State  10:      Singlet-A      3.4066 eV  363.95 nm  f=0.0991  <S**2>=0.000
     264 -> 269        0.57628
     265 -> 270       -0.28311
     267 -> 271       -0.18346
     268 -> 271       -0.16497

 The electronic state is 1-A.
 Alpha  occ. eigenvalues --  -89.11491 -89.06967 -89.06375 -19.24907 -19.23973
 Alpha  occ. eigenvalues --  -19.23809 -19.23720 -19.21796 -19.18737 -14.42696
 Alpha  occ. eigenvalues --  -14.42625 -14.42012 -14.39721 -10.36471 -10.29514
 Alpha  occ. eigenvalues --  -10.29305 -10.29149 -10.29057 -10.29049 -10.28496
 Alpha  occ. eigenvalues --  -10.28396 -10.28370 -10.28324 -10.28211 -10.28120
 Alpha  occ. eigenvalues --  -10.28067 -10.27999 -10.27981 -10.27850 -10.27788
 Alpha  occ. eigenvalues --  -10.27632 -10.27541 -10.27362 -10.27024 -10.26899
 Alpha  occ. eigenvalues --  -10.26836 -10.26685 -10.26374 -10.26032 -10.25615
 Alpha  occ. eigenvalues --  -10.25352 -10.25328 -10.25097 -10.25052 -10.25036
 Alpha  occ. eigenvalues --  -10.24981 -10.24638 -10.24580 -10.24126 -10.24011
 Alpha  occ. eigenvalues --  -10.23826 -10.23608 -10.23403 -10.23297 -10.23112
 Alpha  occ. eigenvalues --  -10.23086 -10.22920 -10.22890 -10.22885 -10.22873
 Alpha  occ. eigenvalues --  -10.22855 -10.22739 -10.22712 -10.22710 -10.22595
 Alpha  occ. eigenvalues --  -10.22560 -10.22535 -10.22499 -10.22492 -10.22477
 Alpha  occ. eigenvalues --  -10.22442 -10.22368 -10.22126 -10.21609  -8.09532
 Alpha  occ. eigenvalues --   -8.05306  -8.04719  -6.03316  -6.02738  -6.02520
 Alpha  occ. eigenvalues --   -5.98986  -5.98627  -5.98408  -5.98263  -5.98048
 Alpha  occ. eigenvalues --   -5.97662  -1.13996  -1.10489  -1.10236  -1.10194
 Alpha  occ. eigenvalues --   -1.08252  -1.06078  -1.05681  -1.00014  -0.95993
 Alpha  occ. eigenvalues --   -0.95745  -0.93362  -0.92647  -0.91458  -0.90339
 Alpha  occ. eigenvalues --   -0.89670  -0.89365  -0.88437  -0.87790  -0.87308
 Alpha  occ. eigenvalues --   -0.86651  -0.85973  -0.82670  -0.81918  -0.81197
 Alpha  occ. eigenvalues --   -0.80388  -0.80073  -0.79753  -0.79323  -0.78463
 Alpha  occ. eigenvalues --   -0.78201  -0.77764  -0.77418  -0.77360  -0.77222
 Alpha  occ. eigenvalues --   -0.76742  -0.76531  -0.76201  -0.74830  -0.74311
 Alpha  occ. eigenvalues --   -0.73340  -0.72526  -0.72440  -0.70936  -0.70746
 Alpha  occ. eigenvalues --   -0.69785  -0.68073  -0.66234  -0.66110  -0.65731
 Alpha  occ. eigenvalues --   -0.65159  -0.65091  -0.64524  -0.64023  -0.63806
 Alpha  occ. eigenvalues --   -0.63565  -0.62850  -0.62522  -0.61952  -0.61762
 Alpha  occ. eigenvalues --   -0.61359  -0.60357  -0.60216  -0.59501  -0.58901
 Alpha  occ. eigenvalues --   -0.57613  -0.57292  -0.56850  -0.56378  -0.55920
 Alpha  occ. eigenvalues --   -0.55618  -0.55208  -0.55116  -0.53871  -0.53192
 Alpha  occ. eigenvalues --   -0.52825  -0.52405  -0.52251  -0.51522  -0.51240
 Alpha  occ. eigenvalues --   -0.51153  -0.50516  -0.50217  -0.49943  -0.49680
 Alpha  occ. eigenvalues --   -0.49590  -0.49076  -0.49028  -0.48932  -0.48500
 Alpha  occ. eigenvalues --   -0.48151  -0.47648  -0.47596  -0.47453  -0.47270
 Alpha  occ. eigenvalues --   -0.47070  -0.47051  -0.46927  -0.46718  -0.46638
 Alpha  occ. eigenvalues --   -0.46138  -0.46043  -0.45964  -0.45605  -0.45524
 Alpha  occ. eigenvalues --   -0.45422  -0.44926  -0.44655  -0.44249  -0.43820
 Alpha  occ. eigenvalues --   -0.43700  -0.43491  -0.43445  -0.43283  -0.43251
 Alpha  occ. eigenvalues --   -0.43048  -0.42721  -0.42470  -0.42098  -0.42071
 Alpha  occ. eigenvalues --   -0.41880  -0.41624  -0.41011  -0.40797  -0.40720
 Alpha  occ. eigenvalues --   -0.40649  -0.40465  -0.40179  -0.40047  -0.39898
 Alpha  occ. eigenvalues --   -0.39829  -0.39626  -0.39345  -0.39055  -0.38935
 Alpha  occ. eigenvalues --   -0.38842  -0.38625  -0.38394  -0.38039  -0.37962
 Alpha  occ. eigenvalues --   -0.37924  -0.37788  -0.37382  -0.37234  -0.36614
 Alpha  occ. eigenvalues --   -0.36603  -0.36507  -0.36354  -0.36043  -0.35887
 Alpha  occ. eigenvalues --   -0.35696  -0.35397  -0.35228  -0.35073  -0.34812
 Alpha  occ. eigenvalues --   -0.34759  -0.34483  -0.33851  -0.33635  -0.33608
 Alpha  occ. eigenvalues --   -0.32617  -0.32150  -0.31658  -0.30802  -0.29973
 Alpha  occ. eigenvalues --   -0.29447  -0.29039  -0.28799  -0.28677  -0.28208
 Alpha  occ. eigenvalues --   -0.28018  -0.27613  -0.27456  -0.27231  -0.26545
 Alpha  occ. eigenvalues --   -0.26361  -0.26175  -0.25606  -0.24838  -0.23176
 Alpha  occ. eigenvalues --   -0.22094  -0.20688  -0.19011
 Alpha virt. eigenvalues --   -0.11032  -0.09620  -0.05993  -0.03360  -0.03084
 Alpha virt. eigenvalues --   -0.02656  -0.02012  -0.01877  -0.00634  -0.00511
 Alpha virt. eigenvalues --   -0.00195   0.00081   0.00281   0.00318   0.00379

 Mulliken charges:
               1
     1  C   -0.382167
     2  C    0.041224
     3  C   -0.199644
     4  C   -0.191831
     5  S    0.335296
     6  C   -0.298428
     7  C    0.033046
     8  C    0.039174
     9  H    0.132332
    10  C    0.110961
    11  C   -0.121110
    12  C   -0.087432
    13  C    0.010651
    14  C    0.126856
    15  N   -0.513302
    16  S    0.560431
    17  N   -0.555893
    18  C    0.160229
    19  C   -0.031561
    20  C   -0.033996
    21  C   -0.114170
    22  C    0.168298
    23  C   -0.111897
    24  C   -0.076548
    25  H    0.105798
    26  H    0.130153
    27  N   -0.560201
    28  C    0.097832
    29  C   -0.083600
    30  C   -0.050675
    31  C   -0.116819
    32  C   -0.079700
    33  C   -0.081306
    34  H    0.121794
    35  H    0.106888
    36  C   -0.025220
    37  C   -0.068039
    38  C   -0.100148
    39  C    0.196190
    40  C   -0.105645
    41  C    0.109144
    42  O   -0.392990
    43  C   -0.151409
    44  H    0.111479
    45  H    0.130085
    46  H    0.132880
    47  H    0.117441
    48  O   -0.358089
    49  C   -0.178280
    50  H    0.144098
    51  H    0.130612
    52  H    0.126371
    53  H    0.112674
    54  H    0.108744
    55  H    0.118967
    56  H    0.121500
    57  C    0.092156
    58  C   -0.087326
    59  C   -0.031170
    60  C   -0.030074
    61  C   -0.074852
    62  C   -0.083242
    63  H    0.119388
    64  H    0.108313
    65  C   -0.112974
    66  C    0.204780
    67  C   -0.189887
    68  C    0.185329
    69  C   -0.103364
    70  C   -0.073338
    71  H    0.105968
    72  H    0.110136
    73  O   -0.358538
    74  C   -0.178836
    75  H    0.125470
    76  H    0.145239
    77  H    0.125559
    78  H    0.134999
    79  O   -0.368782
    80  C   -0.178714
    81  H    0.124657
    82  H    0.127745
    83  H    0.145791
    84  H    0.103423
    85  H    0.115431
    86  H    0.130592
    87  H    0.117490
    88  H    0.110524
    89  H    0.114314
    90  S    0.349285
    91  C   -0.322905
    92  C    0.024070
    93  H    0.104028
    94  C    0.034675
    95  C   -0.041215
    96  C   -0.065392
    97  C   -0.106499
    98  C   -0.044535
    99  C   -0.110327
   100  H    0.120626
   101  H    0.138010
   102  C    0.059697
   103  C   -0.227383
   104  C    0.033618
   105  N   -0.282383
   106  C    0.501274
   107  O   -0.331665
   108  O   -0.309946
   109  H    0.260917
   110  H    0.141350
   111  H    0.110075
   112  H    0.105954
   113  C   -0.244541
   114  H    0.141505
   115  H    0.126101
   116  H    0.133040
   117  C   -0.244477
   118  H    0.141303
   119  H    0.133050
   120  H    0.125438
 Sum of Mulliken charges =  -0.00000

 Dipole moment (field-independent basis, Debye):
    X=            -12.8826    Y=             -3.2715    Z=              6.0134  Tot=             14.5885
 Quadrupole moment (field-independent basis, Debye-Ang):
   XX=           -545.4069   YY=           -404.7580   ZZ=           -442.3757
   XY=             -3.4039   XZ=             29.1137   YZ=            -15.2221

 Normal termination of Gaussian 16 at Thu Jul  8 16:53:41 2021.
