 Gaussian 16, Revision B.01,
 Gaussian 16:  ES64L-G16RevB.01 20-Dec-2017

 ----------------------------------------
 #N TD(NStates=10) CAM-B3lYP/6-311+G(d,p)
 ----------------------------------------

 ----
 Name
 ----
 Symbolic Z-matrix:
 Charge =  0 Multiplicity = 1

                         Standard orientation:
 ---------------------------------------------------------------------
 Center     Atomic      Atomic             Coordinates (Angstroms)
 Number     Number       Type             X           Y           Z
 ---------------------------------------------------------------------
      1          6           0       -0.937367   -3.073447    0.186672
      2          6           0       -2.122867   -2.115248    0.081661
      3          6           0       -1.679316   -0.804099   -0.068452
      4          6           0       -0.249325   -0.787165   -0.077728
      5         16           0        1.036410    0.361025   -0.215518
      6          6           0        2.238860   -0.926149   -0.055578
      7          6           0        3.663445   -0.618716   -0.088081
      8          6           0        4.167072    0.639785    0.284618
      9          6           0        5.523215    0.918205    0.260048
     10          6           0        6.453643   -0.056471   -0.145370
     11          7           0        7.828021    0.221147   -0.178165
     12          6           0        8.300703    1.552970   -0.385806
     13          6           0        9.254197    2.109715    0.465769
     14          1           0        9.625209    1.528423    1.301420
     15          6           0        9.745666    3.397532    0.252908
     16          6           0        9.267005    4.157431   -0.817016
     17          6           0        8.304305    3.605310   -1.672687
     18          6           0        7.836741    2.318757   -1.466163
     19          1           0        7.103023    1.897060   -2.142771
     20          1           0        7.950783    4.202556   -2.504337
     21          8           0        9.668305    5.425275   -1.114274
     22          6           0       10.642233    6.039950   -0.282435
     23          1           0       10.285306    6.139026    0.748855
     24          1           0       11.585682    5.482513   -0.288556
     25          1           0       10.808033    7.030888   -0.701547
     26          1           0       10.488787    3.794368    0.931210
     27          6           0        8.790537   -0.816003    0.014590
     28          6           0        8.706892   -1.681719    1.105345
     29          6           0        9.647255   -2.694117    1.294967
     30          6           0       10.707870   -2.836370    0.396541
     31          6           0       10.805065   -1.960304   -0.692355
     32          6           0        9.855745   -0.970857   -0.884487
     33          1           0        9.935782   -0.303465   -1.734163
     34          1           0       11.631034   -2.085101   -1.381938
     35          8           0       11.686719   -3.780380    0.489179
     36          6           0       11.645727   -4.694126    1.575939
     37          1           0       11.722954   -4.177359    2.539191
     38          1           0       10.731032   -5.297522    1.559834
     39          1           0       12.508032   -5.346312    1.448547
     40          1           0        9.548391   -3.348753    2.150306
     41          1           0        7.894861   -1.569078    1.813892
     42          6           0        5.957184   -1.318867   -0.523743
     43          6           0        4.600126   -1.587169   -0.494737
     44          1           0        4.253834   -2.557328   -0.831925
     45          1           0        6.645870   -2.082701   -0.860973
     46          1           0        5.873589    1.893646    0.571326
     47          1           0        3.486389    1.408137    0.634689
     48          6           0        1.625489   -2.161053    0.078410
     49          6           0        0.219718   -2.083396    0.064821
     50          1           0        2.191968   -3.072577    0.214700
     51         16           0       -2.977646    0.322058   -0.184968
     52          6           0       -4.162184   -0.988087   -0.012416
     53          6           0       -3.516210   -2.217730    0.113955
     54          1           0       -4.064580   -3.142153    0.244654
     55          6           0       -5.567054   -0.737299   -0.045138
     56         16           0       -6.680862   -2.036515   -0.376555
     57          6           0       -8.117241   -1.007346   -0.249715
     58          6           0       -7.699721    0.298072    0.013178
     59          6           0       -6.283611    0.455188    0.144695
     60          6           0       -5.918293    1.776862    0.543528
     61          6           0       -7.002029    2.580666    0.716207
     62         16           0       -8.542754    1.781825    0.380001
     63          6           0       -6.929485    3.995445    1.127359
     64          8           0       -5.900200    4.586493    1.352715
     65          8           0       -8.156994    4.542399    1.221469
     66          6           0       -8.202058    5.929065    1.604344
     67          1           0       -7.756993    6.064628    2.591080
     68          1           0       -7.661788    6.539691    0.879736
     69          1           0       -9.257040    6.190991    1.617581
     70          1           0       -4.914608    2.135918    0.716605
     71          6           0       -9.376140   -1.653440   -0.354095
     72          6           0      -10.622163   -1.158916   -0.653764
     73          6           0      -10.831709    0.144243   -1.177590
     74          7           0      -10.995247    1.193976   -1.635252
     75          6           0      -11.834467   -2.036742   -0.645164
     76          8           0      -11.763023   -3.147544    0.146859
     77          1           0      -11.061204   -3.044195    0.799445
     78          8           0      -12.816952   -1.818928   -1.296115
     79          1           0       -9.331350   -2.730405   -0.206037
     80          6           0       -0.917271   -3.800420    1.548251
     81          1           0       -0.924169   -3.086302    2.374015
     82          1           0       -1.789433   -4.452223    1.648799
     83          1           0       -0.021019   -4.420217    1.637464
     84          6           0       -0.930182   -4.093261   -0.972236
     85          1           0       -0.947217   -3.587426   -1.939546
     86          1           0       -0.033600   -4.717316   -0.926403
     87          1           0       -1.802170   -4.750158   -0.911574
 ---------------------------------------------------------------------

 SCF Done:  E(RCAM-B3LYP) =  -3810.90593399     A.U. after   24 cycles

 Excitation energies and oscillator strengths:

 Excited State   1:      Singlet-A      2.2680 eV  546.66 nm  f=1.8404  <S**2>=0.000
     207 -> 209       -0.34623
     208 -> 209        0.58616
 This state for optimization and/or second-order correction.
 Total Energy, E(TD-HF/TD-DFT) =  -3810.82258597
 Copying the excited state density for this state as the 1-particle RhoCI density.

 Excited State   2:      Singlet-A      3.1569 eV  392.74 nm  f=0.0371  <S**2>=0.000
     206 -> 209        0.32641
     207 -> 209        0.49241
     208 -> 209        0.24956
     208 -> 210       -0.18644
     208 -> 211       -0.17676

 Excited State   3:      Singlet-A      3.4347 eV  360.98 nm  f=0.0650  <S**2>=0.000
     206 -> 210       -0.15178
     206 -> 211        0.10587
     207 -> 209        0.15928
     207 -> 210       -0.40636
     208 -> 209        0.18036
     208 -> 210        0.46756

 Excited State   4:      Singlet-A      3.6826 eV  336.68 nm  f=0.4351  <S**2>=0.000
     206 -> 209        0.13647
     206 -> 210        0.13393
     207 -> 210        0.17583
     207 -> 211       -0.12396
     208 -> 209        0.13479
     208 -> 211        0.57376

 Excited State   5:      Singlet-A      3.7553 eV  330.16 nm  f=0.0098  <S**2>=0.000
     203 -> 209       -0.10896
     204 -> 209        0.27165
     206 -> 209        0.49214
     207 -> 209       -0.26511
     207 -> 211        0.15106
     208 -> 209       -0.14523

 Excited State   6:      Singlet-A      3.9231 eV  316.04 nm  f=0.0241  <S**2>=0.000
     207 -> 212        0.31477
     208 -> 212        0.58529

 Excited State   7:      Singlet-A      4.1174 eV  301.12 nm  f=0.1449  <S**2>=0.000
     202 -> 209        0.52256
     203 -> 209       -0.38949
     206 -> 209       -0.11453
     208 -> 210       -0.10751

 Excited State   8:      Singlet-A      4.2506 eV  291.68 nm  f=0.0867  <S**2>=0.000
     207 -> 210        0.19067
     207 -> 211        0.42523
     208 -> 209        0.10530
     208 -> 213        0.24058
     208 -> 214       -0.24953
     208 -> 215       -0.20173

 Excited State   9:      Singlet-A      4.4300 eV  279.87 nm  f=0.0161  <S**2>=0.000
     198 -> 209        0.32073
     199 -> 209        0.10077
     200 -> 209        0.13160
     204 -> 209        0.13605
     206 -> 209       -0.10171
     206 -> 210        0.15135
     207 -> 213       -0.25571
     208 -> 210        0.12002
     208 -> 213        0.19893
     208 -> 215        0.20393

 Excited State  10:      Singlet-A      4.4614 eV  277.90 nm  f=0.0961  <S**2>=0.000
     207 -> 217        0.28821
     208 -> 215       -0.11945
     208 -> 216       -0.18776
     208 -> 217        0.42800
     208 -> 218       -0.12551
     208 -> 222       -0.10783
     208 -> 223       -0.12149

 The electronic state is 1-A.
 Alpha  occ. eigenvalues --  -88.98132 -88.97732 -88.96649 -88.96503 -19.25564
 Alpha  occ. eigenvalues --  -19.25096 -19.23696 -19.23547 -19.19739 -19.18968
 Alpha  occ. eigenvalues --  -14.42366 -14.38792 -10.39872 -10.39592 -10.33724
 Alpha  occ. eigenvalues --  -10.32100 -10.32054 -10.31982 -10.31972 -10.31720
 Alpha  occ. eigenvalues --  -10.31514 -10.31237 -10.30984 -10.30920 -10.30740
 Alpha  occ. eigenvalues --  -10.30650 -10.30635 -10.30619 -10.30398 -10.29756
 Alpha  occ. eigenvalues --  -10.29752 -10.29500 -10.29405 -10.29313 -10.28616
 Alpha  occ. eigenvalues --  -10.28578 -10.28548 -10.27463 -10.27247 -10.27226
 Alpha  occ. eigenvalues --  -10.26688 -10.26403 -10.26352 -10.26289 -10.26149
 Alpha  occ. eigenvalues --  -10.26138 -10.26129 -10.26075 -10.25979 -10.25674
 Alpha  occ. eigenvalues --  -10.25664 -10.25643 -10.25637 -10.25578 -10.25577
 Alpha  occ. eigenvalues --   -8.07006  -8.06568  -8.05456  -8.05349  -6.03424
 Alpha  occ. eigenvalues --   -6.03011  -6.02977  -6.02631  -6.02588  -6.02195
 Alpha  occ. eigenvalues --   -6.01899  -6.01758  -6.01484  -6.01368  -6.01024
 Alpha  occ. eigenvalues --   -6.00979  -1.20697  -1.19717  -1.16252  -1.16106
 Alpha  occ. eigenvalues --   -1.11731  -1.11578  -1.06119  -1.03021  -1.02037
 Alpha  occ. eigenvalues --   -0.99460  -0.98551  -0.96476  -0.95833  -0.95550
 Alpha  occ. eigenvalues --   -0.94203  -0.93371  -0.92355  -0.88853  -0.87469
 Alpha  occ. eigenvalues --   -0.86095  -0.86013  -0.85536  -0.84769  -0.84682
 Alpha  occ. eigenvalues --   -0.84395  -0.84033  -0.83127  -0.82836  -0.82245
 Alpha  occ. eigenvalues --   -0.81243  -0.79416  -0.79326  -0.78967  -0.77561
 Alpha  occ. eigenvalues --   -0.75145  -0.73120  -0.71907  -0.71735  -0.71148
 Alpha  occ. eigenvalues --   -0.71028  -0.70425  -0.70105  -0.68832  -0.68317
 Alpha  occ. eigenvalues --   -0.66732  -0.65990  -0.64915  -0.64698  -0.63903
 Alpha  occ. eigenvalues --   -0.63578  -0.63010  -0.62819  -0.62612  -0.61604
 Alpha  occ. eigenvalues --   -0.60853  -0.59830  -0.59192  -0.57988  -0.57727
 Alpha  occ. eigenvalues --   -0.57257  -0.57120  -0.56585  -0.56255  -0.55490
 Alpha  occ. eigenvalues --   -0.55389  -0.55319  -0.54975  -0.54430  -0.53987
 Alpha  occ. eigenvalues --   -0.53356  -0.53193  -0.53147  -0.52974  -0.52619
 Alpha  occ. eigenvalues --   -0.52162  -0.51929  -0.51705  -0.51046  -0.50917
 Alpha  occ. eigenvalues --   -0.50745  -0.50557  -0.50424  -0.50182  -0.49650
 Alpha  occ. eigenvalues --   -0.49635  -0.49036  -0.48898  -0.48468  -0.48284
 Alpha  occ. eigenvalues --   -0.48032  -0.47692  -0.47463  -0.46924  -0.46743
 Alpha  occ. eigenvalues --   -0.46511  -0.46408  -0.46256  -0.45815  -0.45513
 Alpha  occ. eigenvalues --   -0.45206  -0.44751  -0.44462  -0.44248  -0.44098
 Alpha  occ. eigenvalues --   -0.43821  -0.43565  -0.43320  -0.43153  -0.42544
 Alpha  occ. eigenvalues --   -0.42124  -0.41792  -0.41393  -0.41243  -0.40719
 Alpha  occ. eigenvalues --   -0.40596  -0.40520  -0.40407  -0.40251  -0.39811
 Alpha  occ. eigenvalues --   -0.39661  -0.38669  -0.37898  -0.36508  -0.35869
 Alpha  occ. eigenvalues --   -0.35168  -0.34011  -0.33595  -0.33240  -0.32579
 Alpha  occ. eigenvalues --   -0.32518  -0.32297  -0.32214  -0.31322  -0.29784
 Alpha  occ. eigenvalues --   -0.28516  -0.25220  -0.22973
 Alpha virt. eigenvalues --   -0.08715  -0.04414  -0.02561   0.00056   0.00543
 Alpha virt. eigenvalues --    0.00806   0.01234   0.01713   0.01875   0.02204
 Alpha virt. eigenvalues --    0.02270   0.02489   0.02569   0.02578   0.02879

 Mulliken charges:
               1
     1  C    0.822527
     2  C   -0.010990
     3  C    0.465008
     4  C    0.400914
     5  S   -0.567790
     6  C   -0.408572
     7  C    0.750215
     8  C   -0.236327
     9  C   -0.167570
    10  C    0.016132
    11  N    0.767541
    12  C   -0.300460
    13  C    0.010204
    14  H    0.146063
    15  C    0.105943
    16  C   -0.442623
    17  C   -0.196547
    18  C    0.013391
    19  H    0.149814
    20  H    0.141937
    21  O   -0.174349
    22  C   -0.249556
    23  H    0.147397
    24  H    0.147304
    25  H    0.163531
    26  H    0.134140
    27  C   -0.352701
    28  C   -0.025374
    29  C    0.087198
    30  C   -0.459664
    31  C   -0.081156
    32  C   -0.027623
    33  H    0.149325
    34  H    0.141687
    35  O   -0.176353
    36  C   -0.254158
    37  H    0.148399
    38  H    0.147452
    39  H    0.163898
    40  H    0.133106
    41  H    0.146094
    42  C   -0.282484
    43  C   -0.672636
    44  H    0.128957
    45  H    0.155628
    46  H    0.157515
    47  H    0.137797
    48  C   -0.102496
    49  C    0.211108
    50  H    0.128847
    51  S   -0.705382
    52  C    0.311587
    53  C   -0.245823
    54  H    0.138935
    55  C    0.662372
    56  S   -0.671004
    57  C    0.308010
    58  C    0.233785
    59  C    0.176463
    60  C   -0.163836
    61  C   -0.470842
    62  S   -0.523782
    63  C    0.502096
    64  O   -0.281957
    65  O   -0.140664
    66  C   -0.171936
    67  H    0.164092
    68  H    0.166290
    69  H    0.166922
    70  H    0.183223
    71  C   -0.257263
    72  C    0.936704
    73  C   -0.921973
    74  N   -0.145987
    75  C   -0.007481
    76  O   -0.164213
    77  H    0.233352
    78  O   -0.253490
    79  H    0.135874
    80  C   -0.660261
    81  H    0.154144
    82  H    0.151404
    83  H    0.153214
    84  C   -0.679415
    85  H    0.151714
    86  H    0.152812
    87  H    0.152677
 Sum of Mulliken charges =  -0.00000

 Dipole moment (field-independent basis, Debye):
    X=             15.4526    Y=             -3.2913    Z=              6.0298  Tot=             16.9108
 Quadrupole moment (field-independent basis, Debye-Ang):
   XX=           -462.6434   YY=           -307.7643   ZZ=           -351.9836
   XY=             -1.8647   XZ=            -25.7476   YZ=             -2.3895

 Normal termination of Gaussian 16 at Sat Jun 12 18:22:56 2021.
