 Gaussian 16, Revision B.01,
 Gaussian 16:  ES64L-G16RevB.01 20-Dec-2017

 ------------------------------------
 #N TD(NStates=10) wB97XD/aug-cc-pVDZ
 ------------------------------------

 ----
 Name
 ----
 Symbolic Z-matrix:
 Charge =  0 Multiplicity = 1

                         Standard orientation:
 ---------------------------------------------------------------------
 Center     Atomic      Atomic             Coordinates (Angstroms)
 Number     Number       Type             X           Y           Z
 ---------------------------------------------------------------------
      1          6           0       -0.937367   -3.073447    0.186672
      2          6           0       -2.122867   -2.115248    0.081661
      3          6           0       -1.679316   -0.804099   -0.068452
      4          6           0       -0.249325   -0.787165   -0.077728
      5         16           0        1.036410    0.361025   -0.215518
      6          6           0        2.238860   -0.926149   -0.055578
      7          6           0        3.663445   -0.618716   -0.088081
      8          6           0        4.167072    0.639785    0.284618
      9          6           0        5.523215    0.918205    0.260048
     10          6           0        6.453643   -0.056471   -0.145370
     11          7           0        7.828021    0.221147   -0.178165
     12          6           0        8.300703    1.552970   -0.385806
     13          6           0        9.254197    2.109715    0.465769
     14          1           0        9.625209    1.528423    1.301420
     15          6           0        9.745666    3.397532    0.252908
     16          6           0        9.267005    4.157431   -0.817016
     17          6           0        8.304305    3.605310   -1.672687
     18          6           0        7.836741    2.318757   -1.466163
     19          1           0        7.103023    1.897060   -2.142771
     20          1           0        7.950783    4.202556   -2.504337
     21          8           0        9.668305    5.425275   -1.114274
     22          6           0       10.642233    6.039950   -0.282435
     23          1           0       10.285306    6.139026    0.748855
     24          1           0       11.585682    5.482513   -0.288556
     25          1           0       10.808033    7.030888   -0.701547
     26          1           0       10.488787    3.794368    0.931210
     27          6           0        8.790537   -0.816003    0.014590
     28          6           0        8.706892   -1.681719    1.105345
     29          6           0        9.647255   -2.694117    1.294967
     30          6           0       10.707870   -2.836370    0.396541
     31          6           0       10.805065   -1.960304   -0.692355
     32          6           0        9.855745   -0.970857   -0.884487
     33          1           0        9.935782   -0.303465   -1.734163
     34          1           0       11.631034   -2.085101   -1.381938
     35          8           0       11.686719   -3.780380    0.489179
     36          6           0       11.645727   -4.694126    1.575939
     37          1           0       11.722954   -4.177359    2.539191
     38          1           0       10.731032   -5.297522    1.559834
     39          1           0       12.508032   -5.346312    1.448547
     40          1           0        9.548391   -3.348753    2.150306
     41          1           0        7.894861   -1.569078    1.813892
     42          6           0        5.957184   -1.318867   -0.523743
     43          6           0        4.600126   -1.587169   -0.494737
     44          1           0        4.253834   -2.557328   -0.831925
     45          1           0        6.645870   -2.082701   -0.860973
     46          1           0        5.873589    1.893646    0.571326
     47          1           0        3.486389    1.408137    0.634689
     48          6           0        1.625489   -2.161053    0.078410
     49          6           0        0.219718   -2.083396    0.064821
     50          1           0        2.191968   -3.072577    0.214700
     51         16           0       -2.977646    0.322058   -0.184968
     52          6           0       -4.162184   -0.988087   -0.012416
     53          6           0       -3.516210   -2.217730    0.113955
     54          1           0       -4.064580   -3.142153    0.244654
     55          6           0       -5.567054   -0.737299   -0.045138
     56         16           0       -6.680862   -2.036515   -0.376555
     57          6           0       -8.117241   -1.007346   -0.249715
     58          6           0       -7.699721    0.298072    0.013178
     59          6           0       -6.283611    0.455188    0.144695
     60          6           0       -5.918293    1.776862    0.543528
     61          6           0       -7.002029    2.580666    0.716207
     62         16           0       -8.542754    1.781825    0.380001
     63          6           0       -6.929485    3.995445    1.127359
     64          8           0       -5.900200    4.586493    1.352715
     65          8           0       -8.156994    4.542399    1.221469
     66          6           0       -8.202058    5.929065    1.604344
     67          1           0       -7.756993    6.064628    2.591080
     68          1           0       -7.661788    6.539691    0.879736
     69          1           0       -9.257040    6.190991    1.617581
     70          1           0       -4.914608    2.135918    0.716605
     71          6           0       -9.376140   -1.653440   -0.354095
     72          6           0      -10.622163   -1.158916   -0.653764
     73          6           0      -10.831709    0.144243   -1.177590
     74          7           0      -10.995247    1.193976   -1.635252
     75          6           0      -11.834467   -2.036742   -0.645164
     76          8           0      -11.763023   -3.147544    0.146859
     77          1           0      -11.061204   -3.044195    0.799445
     78          8           0      -12.816952   -1.818928   -1.296115
     79          1           0       -9.331350   -2.730405   -0.206037
     80          6           0       -0.917271   -3.800420    1.548251
     81          1           0       -0.924169   -3.086302    2.374015
     82          1           0       -1.789433   -4.452223    1.648799
     83          1           0       -0.021019   -4.420217    1.637464
     84          6           0       -0.930182   -4.093261   -0.972236
     85          1           0       -0.947217   -3.587426   -1.939546
     86          1           0       -0.033600   -4.717316   -0.926403
     87          1           0       -1.802170   -4.750158   -0.911574
 ---------------------------------------------------------------------

 SCF Done:  E(RwB97XD) =  -3810.93882893     A.U. after  114 cycles

 Excitation energies and oscillator strengths:

 Excited State   1:      Singlet-A      2.3407 eV  529.68 nm  f=1.8153  <S**2>=0.000
     207 -> 209        0.39864
     208 -> 209        0.53992
 This state for optimization and/or second-order correction.
 Total Energy, E(TD-HF/TD-DFT) =  -3810.85280850
 Copying the excited state density for this state as the 1-particle RhoCI density.

 Excited State   2:      Singlet-A      3.2926 eV  376.55 nm  f=0.1298  <S**2>=0.000
     204 -> 209       -0.10416
     206 -> 209        0.37430
     207 -> 209       -0.32503
     207 -> 210       -0.14345
     208 -> 209        0.17053
     208 -> 210       -0.29336
     208 -> 211       -0.27050

 Excited State   3:      Singlet-A      3.6129 eV  343.17 nm  f=0.2057  <S**2>=0.000
     206 -> 210       -0.24239
     207 -> 209       -0.15594
     207 -> 210        0.44061
     208 -> 209        0.14176
     208 -> 210        0.31612
     208 -> 211       -0.19461

 Excited State   4:      Singlet-A      3.8474 eV  322.25 nm  f=0.2441  <S**2>=0.000
     204 -> 209       -0.23007
     206 -> 209        0.34065
     206 -> 211        0.10439
     208 -> 209        0.13570
     208 -> 210        0.14273
     208 -> 211        0.42421
     208 -> 217       -0.14714

 Excited State   5:      Singlet-A      3.9627 eV  312.88 nm  f=0.0275  <S**2>=0.000
     207 -> 212        0.16756
     207 -> 213       -0.19876
     207 -> 214        0.17158
     207 -> 215        0.11157
     208 -> 212       -0.27507
     208 -> 213        0.34454
     208 -> 214       -0.29614
     208 -> 215       -0.18909

 Excited State   6:      Singlet-A      4.0271 eV  307.88 nm  f=0.0193  <S**2>=0.000
     202 -> 209       -0.19659
     203 -> 209       -0.18359
     204 -> 209       -0.18143
     206 -> 209        0.13888
     207 -> 209        0.30462
     207 -> 211       -0.30451
     208 -> 209       -0.26072
     208 -> 211       -0.20369
     208 -> 217       -0.10367

 Excited State   7:      Singlet-A      4.1584 eV  298.16 nm  f=0.1460  <S**2>=0.000
     202 -> 209        0.49228
     203 -> 209        0.34367
     206 -> 209        0.13472
     207 -> 211       -0.16786

 Excited State   8:      Singlet-A      4.4130 eV  280.95 nm  f=0.1209  <S**2>=0.000
     198 -> 209       -0.25638
     204 -> 209       -0.16535
     207 -> 209        0.16268
     207 -> 211        0.24821
     208 -> 209       -0.16361
     208 -> 214        0.10251
     208 -> 215       -0.10783
     208 -> 217        0.31654
     208 -> 228        0.12491

 Excited State   9:      Singlet-A      4.5199 eV  274.31 nm  f=0.0918  <S**2>=0.000
     207 -> 222        0.14004
     207 -> 224       -0.17224
     207 -> 225        0.14601
     207 -> 227        0.11572
     208 -> 218       -0.15672
     208 -> 221        0.12157
     208 -> 222       -0.16252
     208 -> 224        0.20019
     208 -> 225       -0.22508
     208 -> 227       -0.19967
     208 -> 228        0.10949
     208 -> 229        0.10399
     208 -> 230       -0.14323
     208 -> 231        0.12856

 Excited State  10:      Singlet-A      4.5466 eV  272.70 nm  f=0.0170  <S**2>=0.000
     198 -> 209        0.19487
     206 -> 209        0.10611
     207 -> 214        0.16778
     207 -> 215       -0.10746
     207 -> 216        0.10010
     207 -> 224       -0.11017
     207 -> 226        0.16174
     207 -> 228        0.11513
     208 -> 214        0.15283
     208 -> 215       -0.12803
     208 -> 216        0.10907
     208 -> 217        0.10116
     208 -> 224        0.15897
     208 -> 226        0.16559
     208 -> 230        0.17086

 The electronic state is 1-A.
 Alpha  occ. eigenvalues --  -89.11189 -89.10777 -89.09713 -89.09515 -19.33067
 Alpha  occ. eigenvalues --  -19.32687 -19.31289 -19.31143 -19.27041 -19.26373
 Alpha  occ. eigenvalues --  -14.48614 -14.45353 -10.44691 -10.44599 -10.38804
 Alpha  occ. eigenvalues --  -10.37147 -10.37138 -10.37082 -10.36956 -10.36782
 Alpha  occ. eigenvalues --  -10.36588 -10.36277 -10.36134 -10.36003 -10.35828
 Alpha  occ. eigenvalues --  -10.35737 -10.35729 -10.35625 -10.35456 -10.34813
 Alpha  occ. eigenvalues --  -10.34785 -10.34516 -10.34429 -10.34423 -10.34047
 Alpha  occ. eigenvalues --  -10.33760 -10.33670 -10.32578 -10.32350 -10.32286
 Alpha  occ. eigenvalues --  -10.31828 -10.31540 -10.31480 -10.31390 -10.31258
 Alpha  occ. eigenvalues --  -10.31245 -10.31236 -10.31211 -10.31082 -10.30929
 Alpha  occ. eigenvalues --  -10.30901 -10.30821 -10.30754 -10.30731 -10.30687
 Alpha  occ. eigenvalues --   -8.12884  -8.12404  -8.11332  -8.11159  -6.07753
 Alpha  occ. eigenvalues --   -6.07367  -6.07266  -6.06985  -6.06904  -6.06506
 Alpha  occ. eigenvalues --   -6.06226  -6.06022  -6.05836  -6.05659  -6.05373
 Alpha  occ. eigenvalues --   -6.05263  -1.22641  -1.21766  -1.18334  -1.18193
 Alpha  occ. eigenvalues --   -1.13721  -1.13645  -1.07926  -1.04669  -1.03697
 Alpha  occ. eigenvalues --   -1.01352  -1.00176  -0.98116  -0.97510  -0.97225
 Alpha  occ. eigenvalues --   -0.95898  -0.95082  -0.94012  -0.90576  -0.89205
 Alpha  occ. eigenvalues --   -0.87784  -0.87758  -0.87259  -0.86508  -0.86427
 Alpha  occ. eigenvalues --   -0.86120  -0.85724  -0.84858  -0.84513  -0.83982
 Alpha  occ. eigenvalues --   -0.82934  -0.81161  -0.81028  -0.80695  -0.79295
 Alpha  occ. eigenvalues --   -0.76898  -0.74835  -0.73622  -0.73438  -0.72925
 Alpha  occ. eigenvalues --   -0.72732  -0.72127  -0.71800  -0.70551  -0.70047
 Alpha  occ. eigenvalues --   -0.68405  -0.67664  -0.66581  -0.66386  -0.65576
 Alpha  occ. eigenvalues --   -0.65275  -0.64687  -0.64406  -0.64210  -0.63274
 Alpha  occ. eigenvalues --   -0.62526  -0.61500  -0.60855  -0.59612  -0.59276
 Alpha  occ. eigenvalues --   -0.58765  -0.58729  -0.58250  -0.57889  -0.57070
 Alpha  occ. eigenvalues --   -0.56973  -0.56818  -0.56621  -0.56053  -0.55623
 Alpha  occ. eigenvalues --   -0.55064  -0.54874  -0.54779  -0.54584  -0.54268
 Alpha  occ. eigenvalues --   -0.53830  -0.53594  -0.53360  -0.52634  -0.52448
 Alpha  occ. eigenvalues --   -0.52265  -0.52066  -0.52014  -0.51692  -0.51228
 Alpha  occ. eigenvalues --   -0.51154  -0.50583  -0.50507  -0.50092  -0.49892
 Alpha  occ. eigenvalues --   -0.49705  -0.49495  -0.49109  -0.48593  -0.48315
 Alpha  occ. eigenvalues --   -0.48142  -0.48027  -0.47866  -0.47558  -0.47203
 Alpha  occ. eigenvalues --   -0.46870  -0.46399  -0.46079  -0.45890  -0.45683
 Alpha  occ. eigenvalues --   -0.45380  -0.45255  -0.45020  -0.44837  -0.44413
 Alpha  occ. eigenvalues --   -0.43902  -0.43354  -0.43049  -0.42863  -0.42404
 Alpha  occ. eigenvalues --   -0.42226  -0.42165  -0.42079  -0.41968  -0.41592
 Alpha  occ. eigenvalues --   -0.41376  -0.40286  -0.39722  -0.37965  -0.37486
 Alpha  occ. eigenvalues --   -0.37040  -0.35918  -0.35499  -0.35158  -0.34472
 Alpha  occ. eigenvalues --   -0.34415  -0.34190  -0.34116  -0.33235  -0.31623
 Alpha  occ. eigenvalues --   -0.30393  -0.26966  -0.24659
 Alpha virt. eigenvalues --   -0.06507  -0.02022  -0.00212   0.02324   0.02469
 Alpha virt. eigenvalues --    0.02694   0.02931   0.03106   0.03364   0.03709
 Alpha virt. eigenvalues --    0.03782   0.03874   0.04170   0.04267   0.04477

 Mulliken charges:
               1
     1  C   -0.983457
     2  C   -0.124170
     3  C   -0.363259
     4  C   -0.347292
     5  S   -0.208353
     6  C   -0.230682
     7  C    1.570638
     8  C    0.501246
     9  C    0.219643
    10  C    0.945991
    11  N   -0.026761
    12  C    0.540748
    13  C    1.191841
    14  H   -1.087260
    15  C    0.874348
    16  C    0.755490
    17  C    0.122460
    18  C    1.387553
    19  H   -1.115464
    20  H   -0.814470
    21  O   -0.709773
    22  C    1.005663
    23  H   -0.118643
    24  H   -0.118445
    25  H   -0.423828
    26  H   -1.089672
    27  C    0.404534
    28  C    1.789605
    29  C    1.196930
    30  C    0.498487
    31  C    0.164540
    32  C    0.456688
    33  H   -1.028668
    34  H   -0.800577
    35  O   -0.715714
    36  C    1.003213
    37  H   -0.120233
    38  H   -0.120707
    39  H   -0.421403
    40  H   -1.093506
    41  H   -1.148940
    42  C    0.176467
    43  C    0.453091
    44  H   -0.885294
    45  H   -1.088500
    46  H   -1.093985
    47  H   -0.934936
    48  C    1.215831
    49  C   -0.110573
    50  H   -1.020079
    51  S    0.051478
    52  C   -0.371881
    53  C    1.347924
    54  H   -1.013075
    55  C    0.391164
    56  S    0.087904
    57  C   -0.244342
    58  C   -0.072034
    59  C    0.198515
    60  C    1.382431
    61  C   -0.024304
    62  S   -0.053167
    63  C    0.163260
    64  O   -0.581532
    65  O   -0.610726
    66  C    0.971742
    67  H   -0.124186
    68  H   -0.119209
    69  H   -0.335006
    70  H   -0.970757
    71  C    0.802917
    72  C    1.456207
    73  C   -0.751632
    74  N   -0.149981
    75  C    0.429674
    76  O   -0.484205
    77  H    0.169577
    78  O   -0.493889
    79  H   -0.889367
    80  C    1.685119
    81  H   -0.173486
    82  H   -0.251440
    83  H   -0.251164
    84  C    1.333297
    85  H   -0.157369
    86  H   -0.244002
    87  H   -0.234818
 Sum of Mulliken charges =  -0.00000

 Dipole moment (field-independent basis, Debye):
    X=             14.9041    Y=             -3.4093    Z=              5.7517  Tot=             16.3351
 Quadrupole moment (field-independent basis, Debye-Ang):
   XX=           -447.9303   YY=           -302.4198   ZZ=           -348.4372
   XY=              0.1092   XZ=            -26.8654   YZ=             -2.6360

 Normal termination of Gaussian 16 at Tue Jun 22 12:19:52 2021.
