 Gaussian 09, Revision D.01,
 Gaussian 09:  ES64L-G09RevD.01 24-Apr-2013

 ---------------------------------------
 #N CAM-B3LYP/6-311G(d,p) TD(NStates=10)
 ---------------------------------------

 ----
 Name
 ----
 Symbolic Z-matrix:
 Charge =  0 Multiplicity = 1

                         Standard orientation:
 ---------------------------------------------------------------------
 Center     Atomic      Atomic             Coordinates (Angstroms)
 Number     Number       Type             X           Y           Z
 ---------------------------------------------------------------------
      1          6           0       -1.583874    0.556693   -0.164710
      2          6           0       -2.616567    1.501336   -0.011816
      3          6           0       -3.942989    1.109980    0.076132
      4          6           0       -1.955555   -0.799337   -0.216835
      5          6           0       -3.278111   -1.195779   -0.112784
      6          6           0       -4.302513   -0.246165    0.031800
      7          7           0       -5.653743   -0.644860    0.129870
      8          6           0       -6.555670    0.066752    0.971486
      9          6           0       -7.838060    0.397737    0.515342
     10          6           0       -8.722623    1.080689    1.344026
     11          6           0       -8.340848    1.457342    2.630424
     12          6           0       -7.063338    1.134339    3.084793
     13          6           0       -6.178212    0.437140    2.268997
     14          6           0       -6.131217   -1.761390   -0.614412
     15          6           0       -6.956415   -2.716346   -0.006713
     16          6           0       -7.433142   -3.798766   -0.739167
     17          6           0       -7.084546   -3.955554   -2.079443
     18          6           0       -6.258475   -3.010070   -2.684947
     19          6           0       -5.790828   -1.915720   -1.964668
     20          6           0       -0.185482    0.962340   -0.256540
     21          6           0        0.356566    2.192127   -0.564926
     22          8           0       -0.390562    3.304695   -0.846805
     23          6           0        0.356626    4.327160   -1.518002
     24          6           0        1.682531    4.548965   -0.817823
     25          8           0        2.477808    3.353448   -0.866145
     26          6           0        1.780564    2.218376   -0.571879
     27          6           0        2.372844    1.004615   -0.273638
     28         16           0        1.109661   -0.179762    0.039166
     29          6           0        3.775522    0.647382   -0.180919
     30          6           0        4.799792    1.544768   -0.555334
     31          6           0        6.128149    1.179214   -0.455261
     32          6           0        6.523026   -0.090680    0.016352
     33          6           0        7.936061   -0.366375    0.079998
     34          6           0        8.636656   -1.464719    0.478523
     35          6           0        8.065263   -2.673643    0.956033
     36          7           0        7.689718   -3.694698    1.356037
     37          6           0       10.140658   -1.395407    0.408212
     38          8           0       10.813696   -2.496137    0.806598
     39          8           0       10.731511   -0.422698    0.021469
     40          6           0        5.497845   -0.988283    0.387471
     41          6           0        4.170822   -0.625996    0.290747
     42          1           0       -2.374338    2.553585    0.028009
     43          1           0       -4.714250    1.862200    0.184040
     44          1           0       -1.195538   -1.562581   -0.341151
     45          1           0       -3.526140   -2.248973   -0.147733
     46          1           0       -8.135862    0.114688   -0.486946
     47          1           0       -9.711776    1.329472    0.975962
     48          1           0       -9.030505    1.994060    3.271253
     49          1           0       -6.756134    1.413000    4.086683
     50          1           0       -5.191399    0.176549    2.631921
     51          1           0       -7.221172   -2.603789    1.037568
     52          1           0       -8.070273   -4.529970   -0.254258
     53          1           0       -7.452466   -4.803421   -2.645213
     54          1           0       -5.986196   -3.115491   -3.729222
     55          1           0       -5.160487   -1.175801   -2.442754
     56          1           0       -0.259860    5.225547   -1.485974
     57          1           0        0.520780    4.037932   -2.562391
     58          1           0        1.518767    4.833477    0.227260
     59          1           0        2.269554    5.321118   -1.314991
     60          1           0        4.541252    2.524766   -0.926188
     61          1           0        6.894159    1.888091   -0.751406
     62          1           0        8.583563    0.443108   -0.247632
     63          1           0       10.209140   -3.196646    1.089759
     64          1           0        5.739114   -1.975266    0.757291
     65          1           0        3.417278   -1.343373    0.594055
 ---------------------------------------------------------------------

 SCF Done:  E(RCAM-B3LYP) =  -2118.17172449     A.U. after   16 cycles

 Excitation energies and oscillator strengths:

 Excited State   1:      Singlet-A      2.9231 eV  424.15 nm  f=1.5324  <S**2>=0.000
     144 ->146         0.28955
     145 ->146         0.59742
     145 ->147         0.20220
 This state for optimization and/or second-order correction.
 Total Energy, E(TD-HF/TD-KS) =  -2118.06430234
 Copying the excited state density for this state as the 1-particle RhoCI density.

 Excited State   2:      Singlet-A      3.8733 eV  320.10 nm  f=0.2403  <S**2>=0.000
     140 ->146        -0.11186
     142 ->146         0.14142
     143 ->146        -0.13224
     144 ->146         0.51845
     145 ->146        -0.14530
     145 ->147        -0.34968
     145 ->151        -0.11025

 Excited State   3:      Singlet-A      4.1070 eV  301.88 nm  f=0.1135  <S**2>=0.000
     143 ->146         0.43074
     143 ->147         0.14018
     144 ->146        -0.13808
     144 ->147        -0.12393
     145 ->146         0.21877
     145 ->147        -0.40369
     145 ->151        -0.12902

 Excited State   4:      Singlet-A      4.1924 eV  295.74 nm  f=0.1299  <S**2>=0.000
     142 ->146         0.10616
     143 ->146         0.46481
     143 ->147         0.16968
     144 ->146         0.22768
     144 ->147         0.12940
     145 ->146        -0.23505
     145 ->147         0.30942

 Excited State   5:      Singlet-A      4.2454 eV  292.04 nm  f=0.0202  <S**2>=0.000
     144 ->148        -0.19654
     145 ->148         0.62213
     145 ->152         0.12990

 Excited State   6:      Singlet-A      4.4518 eV  278.51 nm  f=0.0193  <S**2>=0.000
     137 ->146         0.57322
     144 ->150        -0.22313
     145 ->150        -0.24292

 Excited State   7:      Singlet-A      4.4856 eV  276.40 nm  f=0.2260  <S**2>=0.000
     144 ->149        -0.28203
     145 ->149         0.62541

 Excited State   8:      Singlet-A      4.6637 eV  265.85 nm  f=0.0928  <S**2>=0.000
     136 ->146         0.17260
     137 ->146        -0.17097
     140 ->146         0.28536
     142 ->146        -0.29470
     144 ->147         0.38404
     145 ->150        -0.10834
     145 ->151        -0.27007

 Excited State   9:      Singlet-A      4.6958 eV  264.03 nm  f=0.0001  <S**2>=0.000
     135 ->146         0.62330
     135 ->147        -0.22345
     135 ->151         0.11614
     135 ->158        -0.17963

 Excited State  10:      Singlet-A      4.7678 eV  260.05 nm  f=0.0228  <S**2>=0.000
     139 ->146         0.11472
     139 ->147         0.15076
     140 ->149         0.10246
     141 ->146         0.12188
     141 ->147         0.11810
     142 ->148        -0.11282
     144 ->148         0.20446
     144 ->152        -0.11204
     145 ->152         0.51400

 The electronic state is 1-A.
 Alpha  occ. eigenvalues --  -88.95584 -19.25252 -19.24664 -19.23962 -19.17841
 Alpha  occ. eigenvalues --  -14.42046 -14.40337 -10.39110 -10.33308 -10.33263
 Alpha  occ. eigenvalues --  -10.33106 -10.32526 -10.30339 -10.30310 -10.30252
 Alpha  occ. eigenvalues --  -10.29959 -10.29769 -10.29641 -10.29622 -10.29436
 Alpha  occ. eigenvalues --  -10.29317 -10.27910 -10.27191 -10.27104 -10.27031
 Alpha  occ. eigenvalues --  -10.26590 -10.26119 -10.25852 -10.25459 -10.25445
 Alpha  occ. eigenvalues --  -10.25436 -10.25429 -10.25408 -10.25235 -10.25182
 Alpha  occ. eigenvalues --  -10.25177 -10.25160 -10.25141 -10.25102 -10.24998
 Alpha  occ. eigenvalues --  -10.24975  -8.04489  -6.00914  -6.00530  -6.00077
 Alpha  occ. eigenvalues --   -1.19669  -1.19217  -1.15922  -1.10846  -1.05868
 Alpha  occ. eigenvalues --   -1.01310  -0.99339  -0.97042  -0.95261  -0.95010
 Alpha  occ. eigenvalues --   -0.93242  -0.92433  -0.88485  -0.88278  -0.85747
 Alpha  occ. eigenvalues --   -0.85193  -0.84940  -0.83747  -0.83654  -0.83442
 Alpha  occ. eigenvalues --   -0.82287  -0.80705  -0.79462  -0.77512  -0.74519
 Alpha  occ. eigenvalues --   -0.72241  -0.71388  -0.71043  -0.70031  -0.69490
 Alpha  occ. eigenvalues --   -0.69136  -0.68603  -0.68353  -0.66786  -0.65649
 Alpha  occ. eigenvalues --   -0.65484  -0.64049  -0.63475  -0.61673  -0.61563
 Alpha  occ. eigenvalues --   -0.60763  -0.59748  -0.59187  -0.57371  -0.56117
 Alpha  occ. eigenvalues --   -0.55848  -0.55082  -0.54387  -0.53813  -0.53550
 Alpha  occ. eigenvalues --   -0.53401  -0.53144  -0.52912  -0.52616  -0.52290
 Alpha  occ. eigenvalues --   -0.51798  -0.51597  -0.51310  -0.50702  -0.50579
 Alpha  occ. eigenvalues --   -0.50070  -0.49850  -0.49674  -0.49601  -0.48653
 Alpha  occ. eigenvalues --   -0.47787  -0.47335  -0.47097  -0.45989  -0.45740
 Alpha  occ. eigenvalues --   -0.45327  -0.45124  -0.44918  -0.44832  -0.44489
 Alpha  occ. eigenvalues --   -0.44310  -0.43536  -0.43024  -0.42902  -0.42270
 Alpha  occ. eigenvalues --   -0.42168  -0.41643  -0.41468  -0.41249  -0.40781
 Alpha  occ. eigenvalues --   -0.39724  -0.39103  -0.38273  -0.37485  -0.35169
 Alpha  occ. eigenvalues --   -0.34189  -0.33255  -0.32612  -0.32567  -0.31694
 Alpha  occ. eigenvalues --   -0.31409  -0.31117  -0.29207  -0.26829  -0.23485
 Alpha virt. eigenvalues --   -0.06752  -0.01502   0.01395   0.01937   0.02173
 Alpha virt. eigenvalues --    0.03007   0.03870   0.03962   0.05700   0.05777
 Alpha virt. eigenvalues --    0.06143   0.06523   0.06971   0.07871   0.08386

 Mulliken charges:
               1
     1  C   -0.013195
     2  C   -0.029142
     3  C   -0.107284
     4  C   -0.099788
     5  C   -0.105473
     6  C    0.138043
     7  N   -0.490588
     8  C    0.075735
     9  C   -0.080353
    10  C   -0.101140
    11  C   -0.102060
    12  C   -0.100509
    13  C   -0.079728
    14  C    0.073590
    15  C   -0.079291
    16  C   -0.100792
    17  C   -0.101657
    18  C   -0.100192
    19  C   -0.080088
    20  C   -0.293866
    21  C    0.215808
    22  O   -0.361267
    23  C   -0.052270
    24  C   -0.048311
    25  O   -0.363686
    26  C    0.230780
    27  C   -0.313343
    28  S    0.342723
    29  C    0.014589
    30  C   -0.032615
    31  C   -0.062562
    32  C   -0.113206
    33  C    0.063367
    34  C   -0.231931
    35  C   -0.022759
    36  N   -0.201161
    37  C    0.451289
    38  O   -0.297000
    39  O   -0.307678
    40  C   -0.048539
    41  C   -0.111229
    42  H    0.117591
    43  H    0.124045
    44  H    0.111683
    45  H    0.125581
    46  H    0.119763
    47  H    0.106162
    48  H    0.103711
    49  H    0.106557
    50  H    0.121255
    51  H    0.119907
    52  H    0.106640
    53  H    0.104144
    54  H    0.106601
    55  H    0.120500
    56  H    0.134808
    57  H    0.138463
    58  H    0.140554
    59  H    0.134953
    60  H    0.125032
    61  H    0.108906
    62  H    0.142390
    63  H    0.258045
    64  H    0.134724
    65  H    0.114760
 Sum of Mulliken charges =   0.00000

 Dipole moment (field-independent basis, Debye):
    X=             -8.2667    Y=              5.1381    Z=             -1.5425  Tot=              9.8548
 Quadrupole moment (field-independent basis, Debye-Ang):
   XX=           -317.2824   YY=           -217.9798   ZZ=           -238.5069
   XY=             19.8951   XZ=             -5.9694   YZ=             -0.9040

 Normal termination of Gaussian 09 at Mon Jun  7 17:49:53 2021.
