 Gaussian 16, Revision B.01,
 Gaussian 16:  ES64L-G16RevB.01 20-Dec-2017

 ------------------------------------
 #N TD(NStates=10) wB97XD/6-311G(d,p)
 ------------------------------------

 ----
 Name
 ----
 Symbolic Z-matrix:
 Charge =  0 Multiplicity = 1

                         Standard orientation:
 ---------------------------------------------------------------------
 Center     Atomic      Atomic             Coordinates (Angstroms)
 Number     Number       Type             X           Y           Z
 ---------------------------------------------------------------------
      1          6           0       -0.937367   -3.073447    0.186672
      2          6           0       -2.122867   -2.115248    0.081661
      3          6           0       -1.679316   -0.804099   -0.068452
      4          6           0       -0.249325   -0.787165   -0.077728
      5         16           0        1.036410    0.361025   -0.215518
      6          6           0        2.238860   -0.926149   -0.055578
      7          6           0        3.663445   -0.618716   -0.088081
      8          6           0        4.167072    0.639785    0.284618
      9          6           0        5.523215    0.918205    0.260048
     10          6           0        6.453643   -0.056471   -0.145370
     11          7           0        7.828021    0.221147   -0.178165
     12          6           0        8.300703    1.552970   -0.385806
     13          6           0        9.254197    2.109715    0.465769
     14          1           0        9.625209    1.528423    1.301420
     15          6           0        9.745666    3.397532    0.252908
     16          6           0        9.267005    4.157431   -0.817016
     17          6           0        8.304305    3.605310   -1.672687
     18          6           0        7.836741    2.318757   -1.466163
     19          1           0        7.103023    1.897060   -2.142771
     20          1           0        7.950783    4.202556   -2.504337
     21          8           0        9.668305    5.425275   -1.114274
     22          6           0       10.642233    6.039950   -0.282435
     23          1           0       10.285306    6.139026    0.748855
     24          1           0       11.585682    5.482513   -0.288556
     25          1           0       10.808033    7.030888   -0.701547
     26          1           0       10.488787    3.794368    0.931210
     27          6           0        8.790537   -0.816003    0.014590
     28          6           0        8.706892   -1.681719    1.105345
     29          6           0        9.647255   -2.694117    1.294967
     30          6           0       10.707870   -2.836370    0.396541
     31          6           0       10.805065   -1.960304   -0.692355
     32          6           0        9.855745   -0.970857   -0.884487
     33          1           0        9.935782   -0.303465   -1.734163
     34          1           0       11.631034   -2.085101   -1.381938
     35          8           0       11.686719   -3.780380    0.489179
     36          6           0       11.645727   -4.694126    1.575939
     37          1           0       11.722954   -4.177359    2.539191
     38          1           0       10.731032   -5.297522    1.559834
     39          1           0       12.508032   -5.346312    1.448547
     40          1           0        9.548391   -3.348753    2.150306
     41          1           0        7.894861   -1.569078    1.813892
     42          6           0        5.957184   -1.318867   -0.523743
     43          6           0        4.600126   -1.587169   -0.494737
     44          1           0        4.253834   -2.557328   -0.831925
     45          1           0        6.645870   -2.082701   -0.860973
     46          1           0        5.873589    1.893646    0.571326
     47          1           0        3.486389    1.408137    0.634689
     48          6           0        1.625489   -2.161053    0.078410
     49          6           0        0.219718   -2.083396    0.064821
     50          1           0        2.191968   -3.072577    0.214700
     51         16           0       -2.977646    0.322058   -0.184968
     52          6           0       -4.162184   -0.988087   -0.012416
     53          6           0       -3.516210   -2.217730    0.113955
     54          1           0       -4.064580   -3.142153    0.244654
     55          6           0       -5.567054   -0.737299   -0.045138
     56         16           0       -6.680862   -2.036515   -0.376555
     57          6           0       -8.117241   -1.007346   -0.249715
     58          6           0       -7.699721    0.298072    0.013178
     59          6           0       -6.283611    0.455188    0.144695
     60          6           0       -5.918293    1.776862    0.543528
     61          6           0       -7.002029    2.580666    0.716207
     62         16           0       -8.542754    1.781825    0.380001
     63          6           0       -6.929485    3.995445    1.127359
     64          8           0       -5.900200    4.586493    1.352715
     65          8           0       -8.156994    4.542399    1.221469
     66          6           0       -8.202058    5.929065    1.604344
     67          1           0       -7.756993    6.064628    2.591080
     68          1           0       -7.661788    6.539691    0.879736
     69          1           0       -9.257040    6.190991    1.617581
     70          1           0       -4.914608    2.135918    0.716605
     71          6           0       -9.376140   -1.653440   -0.354095
     72          6           0      -10.622163   -1.158916   -0.653764
     73          6           0      -10.831709    0.144243   -1.177590
     74          7           0      -10.995247    1.193976   -1.635252
     75          6           0      -11.834467   -2.036742   -0.645164
     76          8           0      -11.763023   -3.147544    0.146859
     77          1           0      -11.061204   -3.044195    0.799445
     78          8           0      -12.816952   -1.818928   -1.296115
     79          1           0       -9.331350   -2.730405   -0.206037
     80          6           0       -0.917271   -3.800420    1.548251
     81          1           0       -0.924169   -3.086302    2.374015
     82          1           0       -1.789433   -4.452223    1.648799
     83          1           0       -0.021019   -4.420217    1.637464
     84          6           0       -0.930182   -4.093261   -0.972236
     85          1           0       -0.947217   -3.587426   -1.939546
     86          1           0       -0.033600   -4.717316   -0.926403
     87          1           0       -1.802170   -4.750158   -0.911574
 ---------------------------------------------------------------------

 SCF Done:  E(RwB97XD) =  -3811.19894870     A.U. after   21 cycles

 Excitation energies and oscillator strengths:

 Excited State   1:      Singlet-A      2.3819 eV  520.53 nm  f=1.8451  <S**2>=0.000
     207 -> 209       -0.39847
     208 -> 209        0.53994
     208 -> 210       -0.10163
 This state for optimization and/or second-order correction.
 Total Energy, E(TD-HF/TD-DFT) =  -3811.11141623
 Copying the excited state density for this state as the 1-particle RhoCI density.

 Excited State   2:      Singlet-A      3.3420 eV  370.99 nm  f=0.1236  <S**2>=0.000
     204 -> 209        0.10812
     206 -> 209        0.38303
     207 -> 209        0.33356
     207 -> 210        0.13435
     208 -> 209        0.17431
     208 -> 210       -0.29122
     208 -> 211        0.25422

 Excited State   3:      Singlet-A      3.6914 eV  335.87 nm  f=0.1692  <S**2>=0.000
     206 -> 209       -0.10187
     206 -> 210        0.23533
     206 -> 211        0.10072
     207 -> 209       -0.15955
     207 -> 210        0.44282
     208 -> 209       -0.15457
     208 -> 210       -0.32187
     208 -> 211       -0.16350

 Excited State   4:      Singlet-A      3.9033 eV  317.64 nm  f=0.2793  <S**2>=0.000
     204 -> 209       -0.23603
     206 -> 209       -0.33264
     208 -> 209       -0.11689
     208 -> 210       -0.14698
     208 -> 211        0.43141
     208 -> 213       -0.16188

 Excited State   5:      Singlet-A      4.0688 eV  304.72 nm  f=0.0250  <S**2>=0.000
     202 -> 209       -0.21882
     203 -> 209       -0.19388
     204 -> 209       -0.18637
     206 -> 209       -0.13894
     206 -> 210        0.10086
     207 -> 209        0.29945
     207 -> 211        0.28937
     208 -> 209        0.26294
     208 -> 211       -0.21363

 Excited State   6:      Singlet-A      4.1225 eV  300.75 nm  f=0.0282  <S**2>=0.000
     207 -> 212        0.32731
     208 -> 212        0.56279

 Excited State   7:      Singlet-A      4.2078 eV  294.65 nm  f=0.1535  <S**2>=0.000
     202 -> 209        0.48350
     203 -> 209        0.33248
     206 -> 209       -0.14921
     207 -> 209        0.10855
     207 -> 211        0.17099
     208 -> 211       -0.10317

 Excited State   8:      Singlet-A      4.4859 eV  276.38 nm  f=0.1583  <S**2>=0.000
     198 -> 209       -0.30004
     204 -> 209       -0.14668
     207 -> 209        0.13513
     207 -> 211       -0.26818
     208 -> 209        0.15414
     208 -> 213        0.32622
     208 -> 214       -0.17748
     208 -> 218        0.14647

 Excited State   9:      Singlet-A      4.5770 eV  270.88 nm  f=0.0180  <S**2>=0.000
     198 -> 209       -0.24067
     206 -> 209        0.12025
     206 -> 214        0.17297
     207 -> 209       -0.10091
     207 -> 213        0.21917
     207 -> 214        0.32453
     208 -> 213       -0.26347
     208 -> 214       -0.24900

 Excited State  10:      Singlet-A      4.6251 eV  268.07 nm  f=0.0065  <S**2>=0.000
     195 -> 209        0.25848
     195 -> 210        0.20819
     196 -> 209        0.29902
     196 -> 210        0.23241
     197 -> 209       -0.27340
     197 -> 210       -0.10672
     208 -> 214        0.11964
     208 -> 216        0.14088

 The electronic state is 1-A.
 Alpha  occ. eigenvalues --  -89.07812 -89.07368 -89.06236 -89.06103 -19.30267
 Alpha  occ. eigenvalues --  -19.29529 -19.28364 -19.28221 -19.24040 -19.23169
 Alpha  occ. eigenvalues --  -14.46841 -14.42873 -10.43165 -10.42863 -10.37629
 Alpha  occ. eigenvalues --  -10.35920 -10.35778 -10.35762 -10.35637 -10.35620
 Alpha  occ. eigenvalues --  -10.35410 -10.35116 -10.34715 -10.34601 -10.34453
 Alpha  occ. eigenvalues --  -10.34428 -10.34412 -10.34343 -10.34226 -10.33743
 Alpha  occ. eigenvalues --  -10.33642 -10.33280 -10.33186 -10.33150 -10.32406
 Alpha  occ. eigenvalues --  -10.32315 -10.32133 -10.31306 -10.31056 -10.31029
 Alpha  occ. eigenvalues --  -10.30459 -10.30149 -10.30103 -10.29992 -10.29829
 Alpha  occ. eigenvalues --  -10.29824 -10.29793 -10.29786 -10.29626 -10.29505
 Alpha  occ. eigenvalues --  -10.29469 -10.29357 -10.29337 -10.29299 -10.29253
 Alpha  occ. eigenvalues --   -8.11842  -8.11361  -8.10209  -8.10108  -6.06700
 Alpha  occ. eigenvalues --   -6.06301  -6.06209  -6.05918  -6.05837  -6.05436
 Alpha  occ. eigenvalues --   -6.05089  -6.04956  -6.04690  -6.04582  -6.04224
 Alpha  occ. eigenvalues --   -6.04186  -1.22195  -1.21136  -1.17844  -1.17704
 Alpha  occ. eigenvalues --   -1.13222  -1.12991  -1.07676  -1.04501  -1.03530
 Alpha  occ. eigenvalues --   -1.00976  -1.00013  -0.97950  -0.97299  -0.96981
 Alpha  occ. eigenvalues --   -0.95687  -0.94863  -0.93847  -0.90408  -0.89017
 Alpha  occ. eigenvalues --   -0.87607  -0.87526  -0.87071  -0.86269  -0.86200
 Alpha  occ. eigenvalues --   -0.85919  -0.85578  -0.84678  -0.84372  -0.83805
 Alpha  occ. eigenvalues --   -0.82804  -0.81008  -0.80865  -0.80541  -0.79135
 Alpha  occ. eigenvalues --   -0.76749  -0.74710  -0.73480  -0.73311  -0.72597
 Alpha  occ. eigenvalues --   -0.72537  -0.71958  -0.71649  -0.70405  -0.69886
 Alpha  occ. eigenvalues --   -0.68246  -0.67518  -0.66461  -0.66230  -0.65511
 Alpha  occ. eigenvalues --   -0.65158  -0.64611  -0.64317  -0.64123  -0.63197
 Alpha  occ. eigenvalues --   -0.62417  -0.61379  -0.60799  -0.59537  -0.59153
 Alpha  occ. eigenvalues --   -0.58639  -0.58563  -0.58112  -0.57787  -0.56989
 Alpha  occ. eigenvalues --   -0.56857  -0.56701  -0.56445  -0.55956  -0.55383
 Alpha  occ. eigenvalues --   -0.54957  -0.54726  -0.54634  -0.54463  -0.54203
 Alpha  occ. eigenvalues --   -0.53730  -0.53302  -0.53286  -0.52566  -0.52398
 Alpha  occ. eigenvalues --   -0.52213  -0.52030  -0.51950  -0.51653  -0.51209
 Alpha  occ. eigenvalues --   -0.51094  -0.50537  -0.50435  -0.50057  -0.49848
 Alpha  occ. eigenvalues --   -0.49619  -0.49134  -0.48952  -0.48501  -0.48293
 Alpha  occ. eigenvalues --   -0.48056  -0.47944  -0.47804  -0.47421  -0.47139
 Alpha  occ. eigenvalues --   -0.46791  -0.46292  -0.46003  -0.45859  -0.45652
 Alpha  occ. eigenvalues --   -0.45293  -0.45024  -0.44951  -0.44789  -0.44295
 Alpha  occ. eigenvalues --   -0.43788  -0.43318  -0.42945  -0.42820  -0.42227
 Alpha  occ. eigenvalues --   -0.42138  -0.42044  -0.41905  -0.41825  -0.41350
 Alpha  occ. eigenvalues --   -0.41033  -0.40026  -0.39586  -0.37719  -0.37159
 Alpha  occ. eigenvalues --   -0.36817  -0.35757  -0.35375  -0.34994  -0.34336
 Alpha  occ. eigenvalues --   -0.34276  -0.34071  -0.33992  -0.33082  -0.31428
 Alpha  occ. eigenvalues --   -0.30245  -0.26835  -0.24555
 Alpha virt. eigenvalues --   -0.06290  -0.01661   0.00162   0.03318   0.03769
 Alpha virt. eigenvalues --    0.04651   0.05176   0.05543   0.05642   0.05824
 Alpha virt. eigenvalues --    0.06468   0.07766   0.07884   0.08927   0.09506

 Mulliken charges:
               1
     1  C   -0.317008
     2  C    0.024007
     3  C   -0.188267
     4  C   -0.201654
     5  S    0.316476
     6  C   -0.272212
     7  C    0.005834
     8  C   -0.110671
     9  C   -0.132046
    10  C    0.196051
    11  N   -0.515487
    12  C    0.062629
    13  C   -0.081017
    14  H    0.120905
    15  C   -0.152671
    16  C    0.179940
    17  C   -0.103592
    18  C   -0.079050
    19  H    0.126698
    20  H    0.124903
    21  O   -0.353745
    22  C   -0.160347
    23  H    0.120137
    24  H    0.120008
    25  H    0.142242
    26  H    0.125813
    27  C    0.061545
    28  C   -0.081110
    29  C   -0.151781
    30  C    0.179884
    31  C   -0.105823
    32  C   -0.078606
    33  H    0.123007
    34  H    0.123890
    35  O   -0.353988
    36  C   -0.159511
    37  H    0.119742
    38  H    0.118943
    39  H    0.142197
    40  H    0.125736
    41  H    0.124366
    42  C   -0.126501
    43  C   -0.072873
    44  H    0.108174
    45  H    0.133282
    46  H    0.135098
    47  H    0.121412
    48  C   -0.013141
    49  C    0.038269
    50  H    0.112832
    51  S    0.361877
    52  C   -0.247261
    53  C   -0.022192
    54  H    0.124331
    55  C   -0.179315
    56  S    0.348536
    57  C   -0.350461
    58  C   -0.065060
    59  C   -0.002184
    60  C    0.036204
    61  C   -0.384790
    62  S    0.395398
    63  C    0.470315
    64  O   -0.348128
    65  O   -0.337928
    66  C   -0.138595
    67  H    0.135296
    68  H    0.137651
    69  H    0.140128
    70  H    0.155807
    71  C    0.005887
    72  C   -0.189567
    73  C    0.065371
    74  N   -0.224192
    75  C    0.445252
    76  O   -0.314042
    77  H    0.251782
    78  O   -0.297727
    79  H    0.124012
    80  C   -0.242798
    81  H    0.137103
    82  H    0.121119
    83  H    0.123902
    84  C   -0.241374
    85  H    0.138140
    86  H    0.123212
    87  H    0.121374
 Sum of Mulliken charges =  -0.00000

 Dipole moment (field-independent basis, Debye):
    X=             14.6391    Y=             -3.1533    Z=              5.9944  Tot=             16.1300
 Quadrupole moment (field-independent basis, Debye-Ang):
   XX=           -441.2341   YY=           -298.0794   ZZ=           -347.4102
   XY=             -0.5624   XZ=            -25.8659   YZ=             -2.5384

 Normal termination of Gaussian 16 at Wed Jun 16 21:06:40 2021.
