 Gaussian 09, Revision D.01,
 Gaussian 09:  ES64L-G09RevD.01 24-Apr-2013

 ------------------------
 #N B3LYP/6-311G(d,p) OPT
 ------------------------

 -------------
 1ed::11b::1ea
 -------------
 Symbolic Z-matrix:
 Charge =  0 Multiplicity = 1

 SCF Done:  E(RB3LYP) =  -2119.01409948     A.U. after   17 cycles
 SCF Done:  E(RB3LYP) =  -2119.04901931     A.U. after   13 cycles
 SCF Done:  E(RB3LYP) =  -2119.05355526     A.U. after   13 cycles
 SCF Done:  E(RB3LYP) =  -2119.05479101     A.U. after   13 cycles
 SCF Done:  E(RB3LYP) =  -2119.05529410     A.U. after   13 cycles
 SCF Done:  E(RB3LYP) =  -2119.05604774     A.U. after   13 cycles
 SCF Done:  E(RB3LYP) =  -2119.05776326     A.U. after   15 cycles
 SCF Done:  E(RB3LYP) =  -2119.05670426     A.U. after   13 cycles
 SCF Done:  E(RB3LYP) =  -2119.05849098     A.U. after   11 cycles
 SCF Done:  E(RB3LYP) =  -2119.05928806     A.U. after   13 cycles
 SCF Done:  E(RB3LYP) =  -2119.06980999     A.U. after   12 cycles
 SCF Done:  E(RB3LYP) =  -2119.06984452     A.U. after   10 cycles
 SCF Done:  E(RB3LYP) =  -2119.06985186     A.U. after   10 cycles
 SCF Done:  E(RB3LYP) =  -2119.06985406     A.U. after   10 cycles
 SCF Done:  E(RB3LYP) =  -2119.06985511     A.U. after   10 cycles
 SCF Done:  E(RB3LYP) =  -2119.06985531     A.U. after   10 cycles
 SCF Done:  E(RB3LYP) =  -2119.06985516     A.U. after   10 cycles
 SCF Done:  E(RB3LYP) =  -2119.06985538     A.U. after    7 cycles
 SCF Done:  E(RB3LYP) =  -2119.06985546     A.U. after    7 cycles
 SCF Done:  E(RB3LYP) =  -2119.06985548     A.U. after    6 cycles
 Optimization completed.
    -- Stationary point found.

                         Standard orientation:
 ---------------------------------------------------------------------
 Center     Atomic      Atomic             Coordinates (Angstroms)
 Number     Number       Type             X           Y           Z
 ---------------------------------------------------------------------
      1          6           0        1.583874   -0.556693   -0.164710
      2          6           0        2.616567   -1.501336   -0.011816
      3          6           0        3.942989   -1.109980    0.076132
      4          6           0        1.955555    0.799337   -0.216835
      5          6           0        3.278111    1.195779   -0.112784
      6          6           0        4.302513    0.246165    0.031800
      7          7           0        5.653743    0.644860    0.129870
      8          6           0        6.555670   -0.066752    0.971486
      9          6           0        7.838060   -0.397737    0.515342
     10          6           0        8.722623   -1.080689    1.344026
     11          6           0        8.340848   -1.457342    2.630424
     12          6           0        7.063338   -1.134339    3.084793
     13          6           0        6.178212   -0.437140    2.268997
     14          6           0        6.131217    1.761390   -0.614412
     15          6           0        6.956415    2.716346   -0.006713
     16          6           0        7.433142    3.798766   -0.739167
     17          6           0        7.084546    3.955554   -2.079443
     18          6           0        6.258475    3.010070   -2.684947
     19          6           0        5.790828    1.915720   -1.964668
     20          6           0        0.185482   -0.962340   -0.256540
     21          6           0       -0.356566   -2.192127   -0.564926
     22          8           0        0.390562   -3.304695   -0.846805
     23          6           0       -0.356626   -4.327160   -1.518002
     24          6           0       -1.682531   -4.548965   -0.817823
     25          8           0       -2.477808   -3.353448   -0.866145
     26          6           0       -1.780564   -2.218376   -0.571879
     27          6           0       -2.372844   -1.004615   -0.273638
     28         16           0       -1.109661    0.179762    0.039166
     29          6           0       -3.775522   -0.647382   -0.180919
     30          6           0       -4.799792   -1.544768   -0.555334
     31          6           0       -6.128149   -1.179214   -0.455261
     32          6           0       -6.523026    0.090680    0.016352
     33          6           0       -7.936061    0.366375    0.079998
     34          6           0       -8.636656    1.464719    0.478523
     35          6           0       -8.065263    2.673643    0.956033
     36          7           0       -7.689718    3.694698    1.356037
     37          6           0      -10.140658    1.395407    0.408212
     38          8           0      -10.813696    2.496137    0.806598
     39          8           0      -10.731511    0.422698    0.021469
     40          6           0       -5.497845    0.988283    0.387471
     41          6           0       -4.170822    0.625996    0.290747
     42          1           0        2.374338   -2.553585    0.028009
     43          1           0        4.714250   -1.862200    0.184040
     44          1           0        1.195538    1.562581   -0.341151
     45          1           0        3.526140    2.248973   -0.147733
     46          1           0        8.135862   -0.114688   -0.486946
     47          1           0        9.711776   -1.329472    0.975962
     48          1           0        9.030505   -1.994060    3.271253
     49          1           0        6.756134   -1.413000    4.086683
     50          1           0        5.191399   -0.176549    2.631921
     51          1           0        7.221172    2.603789    1.037568
     52          1           0        8.070273    4.529970   -0.254258
     53          1           0        7.452466    4.803421   -2.645213
     54          1           0        5.986196    3.115491   -3.729222
     55          1           0        5.160487    1.175801   -2.442754
     56          1           0        0.259860   -5.225547   -1.485974
     57          1           0       -0.520780   -4.037932   -2.562391
     58          1           0       -1.518767   -4.833477    0.227260
     59          1           0       -2.269554   -5.321118   -1.314991
     60          1           0       -4.541252   -2.524766   -0.926188
     61          1           0       -6.894159   -1.888091   -0.751406
     62          1           0       -8.583563   -0.443108   -0.247632
     63          1           0      -10.209140    3.196646    1.089759
     64          1           0       -5.739114    1.975266    0.757291
     65          1           0       -3.417278    1.343373    0.594055
 ---------------------------------------------------------------------

 The electronic state is 1-A.
 Alpha  occ. eigenvalues --  -88.88726 -19.18289 -19.17762 -19.16506 -19.10339
 Alpha  occ. eigenvalues --  -14.35431 -14.32519 -10.31078 -10.26096 -10.25961
 Alpha  occ. eigenvalues --  -10.25947 -10.25282 -10.22766 -10.22566 -10.22522
 Alpha  occ. eigenvalues --  -10.22475 -10.22456 -10.22438 -10.22226 -10.22212
 Alpha  occ. eigenvalues --  -10.21803 -10.20444 -10.19993 -10.19651 -10.19483
 Alpha  occ. eigenvalues --  -10.19232 -10.18762 -10.18698 -10.18334 -10.18322
 Alpha  occ. eigenvalues --  -10.18314 -10.18304 -10.18284 -10.18193 -10.18117
 Alpha  occ. eigenvalues --  -10.18109 -10.18093 -10.18072 -10.18062 -10.17900
 Alpha  occ. eigenvalues --  -10.17874  -7.97361  -5.93686  -5.93324  -5.92875
 Alpha  occ. eigenvalues --   -1.11659  -1.10766  -1.08120  -1.02634  -0.97902
 Alpha  occ. eigenvalues --   -0.92838  -0.91029  -0.88538  -0.87090  -0.86860
 Alpha  occ. eigenvalues --   -0.85130  -0.83949  -0.80556  -0.80162  -0.77762
 Alpha  occ. eigenvalues --   -0.77108  -0.77028  -0.75914  -0.75847  -0.75647
 Alpha  occ. eigenvalues --   -0.74521  -0.73002  -0.71877  -0.69729  -0.67041
 Alpha  occ. eigenvalues --   -0.64702  -0.64067  -0.63459  -0.62642  -0.62129
 Alpha  occ. eigenvalues --   -0.61756  -0.61363  -0.61030  -0.59525  -0.58388
 Alpha  occ. eigenvalues --   -0.58052  -0.56939  -0.56647  -0.54731  -0.54639
 Alpha  occ. eigenvalues --   -0.53711  -0.52647  -0.52222  -0.50595  -0.49431
 Alpha  occ. eigenvalues --   -0.48892  -0.48354  -0.47711  -0.47108  -0.46897
 Alpha  occ. eigenvalues --   -0.46473  -0.46285  -0.45827  -0.45695  -0.45619
 Alpha  occ. eigenvalues --   -0.45225  -0.44809  -0.44619  -0.44211  -0.44000
 Alpha  occ. eigenvalues --   -0.43585  -0.43407  -0.43272  -0.42799  -0.42137
 Alpha  occ. eigenvalues --   -0.41213  -0.40523  -0.40401  -0.39296  -0.39125
 Alpha  occ. eigenvalues --   -0.38531  -0.38352  -0.38246  -0.38159  -0.38103
 Alpha  occ. eigenvalues --   -0.37647  -0.37425  -0.36966  -0.36575  -0.36126
 Alpha  occ. eigenvalues --   -0.35994  -0.35521  -0.35315  -0.35108  -0.34837
 Alpha  occ. eigenvalues --   -0.33481  -0.32706  -0.32185  -0.31395  -0.28618
 Alpha  occ. eigenvalues --   -0.28435  -0.27705  -0.27366  -0.27281  -0.26474
 Alpha  occ. eigenvalues --   -0.26248  -0.25984  -0.24005  -0.22185  -0.19208
 Alpha virt. eigenvalues --   -0.10409  -0.05775  -0.03359  -0.02840  -0.02532
 Alpha virt. eigenvalues --   -0.01778  -0.01172  -0.01093   0.00748   0.00750
 Alpha virt. eigenvalues --    0.00969   0.01748   0.02110   0.03482   0.03605

 Mulliken charges:
               1
     1  C    0.006174
     2  C   -0.028167
     3  C   -0.101729
     4  C   -0.100069
     5  C   -0.100110
     6  C    0.156081
     7  N   -0.498325
     8  C    0.094200
     9  C   -0.077732
    10  C   -0.091134
    11  C   -0.092360
    12  C   -0.090463
    13  C   -0.076857
    14  C    0.092201
    15  C   -0.076720
    16  C   -0.090747
    17  C   -0.091872
    18  C   -0.090149
    19  C   -0.077292
    20  C   -0.294468
    21  C    0.226845
    22  O   -0.367468
    23  C   -0.038498
    24  C   -0.034404
    25  O   -0.368581
    26  C    0.238055
    27  C   -0.309788
    28  S    0.337413
    29  C    0.031130
    30  C   -0.030382
    31  C   -0.060914
    32  C   -0.087043
    33  C    0.053095
    34  C   -0.207026
    35  C   -0.003256
    36  N   -0.239402
    37  C    0.461442
    38  O   -0.301248
    39  O   -0.319483
    40  C   -0.048162
    41  C   -0.110040
    42  H    0.107605
    43  H    0.113852
    44  H    0.101998
    45  H    0.115466
    46  H    0.109442
    47  H    0.097178
    48  H    0.094895
    49  H    0.097608
    50  H    0.110539
    51  H    0.109590
    52  H    0.097680
    53  H    0.095346
    54  H    0.097659
    55  H    0.109740
    56  H    0.127679
    57  H    0.132413
    58  H    0.134422
    59  H    0.128136
    60  H    0.114443
    61  H    0.097572
    62  H    0.128792
    63  H    0.255444
    64  H    0.125333
    65  H    0.104426
 Sum of Mulliken charges =   0.00000

 Dipole moment (field-independent basis, Debye):
    X=              9.2867    Y=             -5.2824    Z=             -1.5916  Tot=             10.8019
 Quadrupole moment (field-independent basis, Debye-Ang):
   XX=           -320.8096   YY=           -218.1089   ZZ=           -238.0068
   XY=             21.1552   XZ=              6.3505   YZ=              0.6925

 Normal termination of Gaussian 09 at Thu Jun  3 10:42:39 2021.
