 Gaussian 16, Revision B.01,
 Gaussian 16:  ES64L-G16RevB.01 20-Dec-2017

 --------------------------
 #N PBE1PBE/6-311G(d,p) OPT
 --------------------------

 ------------
 C61H46O6N4S3
 ------------
 Symbolic Z-matrix:
 Charge =  0 Multiplicity = 1

 SCF Done:  E(RPBE1PBE) =  -3727.45744277     A.U. after   18 cycles
 SCF Done:  E(RPBE1PBE) =  -3727.45986146     A.U. after   12 cycles
 SCF Done:  E(RPBE1PBE) =  -3727.46010677     A.U. after   11 cycles
 SCF Done:  E(RPBE1PBE) =  -3727.46015648     A.U. after   11 cycles
 SCF Done:  E(RPBE1PBE) =  -3727.46016697     A.U. after   10 cycles
 SCF Done:  E(RPBE1PBE) =  -3727.46016890     A.U. after    9 cycles
 SCF Done:  E(RPBE1PBE) =  -3727.46016859     A.U. after   10 cycles
 SCF Done:  E(RPBE1PBE) =  -3727.46016983     A.U. after   10 cycles
 SCF Done:  E(RPBE1PBE) =  -3727.46017056     A.U. after    8 cycles
 SCF Done:  E(RPBE1PBE) =  -3727.46017085     A.U. after    9 cycles
 SCF Done:  E(RPBE1PBE) =  -3727.46017089     A.U. after   10 cycles
 SCF Done:  E(RPBE1PBE) =  -3727.46017092     A.U. after    7 cycles
 SCF Done:  E(RPBE1PBE) =  -3727.46017095     A.U. after    8 cycles
 SCF Done:  E(RPBE1PBE) =  -3727.46017097     A.U. after    7 cycles
 SCF Done:  E(RPBE1PBE) =  -3727.46017098     A.U. after    7 cycles
 SCF Done:  E(RPBE1PBE) =  -3727.46017099     A.U. after    6 cycles
 Optimization completed.
    -- Stationary point found.

                         Standard orientation:
 ---------------------------------------------------------------------
 Center     Atomic      Atomic             Coordinates (Angstroms)
 Number     Number       Type             X           Y           Z
 ---------------------------------------------------------------------
      1          6           0       -7.917535    7.115210   -0.988000
      2          8           0       -7.174415    6.314445   -0.098870
      3          6           0       -7.377098    4.976006   -0.131493
      4          6           0       -8.280116    4.329020   -0.972666
      5          6           0       -8.399326    2.943988   -0.928172
      6          6           0       -7.643937    2.186658   -0.039057
      7          7           0       -7.795381    0.778199    0.018050
      8          6           0       -6.679466   -0.060416    0.007730
      9          6           0       -6.714942   -1.317918    0.629247
     10          6           0       -5.608561   -2.144699    0.616657
     11          6           0       -4.415272   -1.764062   -0.011800
     12          6           0       -4.386042   -0.505118   -0.624563
     13          6           0       -5.487624    0.329153   -0.620097
     14          1           0       -5.436666    1.290097   -1.118650
     15          1           0       -3.489657   -0.182632   -1.145820
     16          6           0       -3.264203   -2.654940   -0.022501
     17         16           0       -1.651458   -2.039035   -0.200483
     18          6           0       -0.951098   -3.625356   -0.112764
     19          6           0       -1.936752   -4.570907    0.055264
     20          6           0       -3.233951   -4.025409    0.099252
     21          1           0       -4.131472   -4.622824    0.198381
     22          1           0       -1.723377   -5.628023    0.153730
     23          6           0        0.468597   -3.842302   -0.217939
     24         16           0        1.612327   -2.578740    0.102604
     25          6           0        2.963682   -3.618215   -0.227042
     26          6           0        2.523765   -4.885332   -0.545384
     27          6           0        1.125007   -5.010886   -0.542744
     28          1           0        0.600721   -5.920765   -0.805189
     29          1           0        3.198772   -5.689440   -0.810135
     30          6           0        4.321350   -3.153508   -0.149566
     31          6           0        5.470875   -3.915473   -0.067733
     32          6           0        6.644647   -3.152431   -0.017182
     33          6           0        6.423522   -1.787926   -0.049055
     34         16           0        4.712648   -1.467980   -0.166261
     35          6           0        7.370349   -0.704585   -0.000465
     36          6           0        6.976161    0.626837    0.001199
     37          6           0        7.864552    1.710731    0.045117
     38          6           0        9.241649    1.555243    0.093024
     39          6           0        9.704965    0.197565    0.094695
     40          6           0        8.791712   -0.919276    0.048730
     41          7           0        9.413636   -2.095677    0.057136
     42         16           0       11.005654   -1.793652    0.118492
     43          7           0       10.981340   -0.172287    0.136562
     44          6           0       10.228391    2.598543    0.141048
     45          6           0       10.095713    3.951591    0.148841
     46          6           0        8.848653    4.632655    0.106869
     47          7           0        7.822189    5.161651    0.072023
     48          6           0       11.277308    4.843438    0.202970
     49          8           0       12.440842    4.169926    0.241809
     50          1           0       13.132090    4.842346    0.274828
     51          8           0       11.216421    6.044318    0.211751
     52          1           0       11.252068    2.238492    0.176751
     53          1           0        7.436729    2.705169    0.042093
     54          1           0        5.916581    0.858497   -0.030958
     55          1           0        7.639766   -3.567326    0.053625
     56          1           0        5.454413   -4.996759   -0.022705
     57          1           0       -5.658824   -3.094606    1.138593
     58          1           0       -7.617190   -1.634016    1.139984
     59          6           0       -9.105343    0.241211    0.081452
     60          6           0      -10.038600    0.755508    0.975701
     61          6           0      -11.335717    0.256102    1.026210
     62          6           0      -11.710812   -0.790220    0.186008
     63          6           0      -10.775782   -1.314723   -0.710119
     64          6           0       -9.495975   -0.798811   -0.769425
     65          1           0       -8.781361   -1.203590   -1.478092
     66          1           0      -11.085896   -2.120997   -1.365292
     67          8           0      -12.940818   -1.356934    0.159313
     68          6           0      -13.912975   -0.862264    1.050416
     69          1           0      -13.605683   -0.991243    2.095334
     70          1           0      -14.128348    0.197234    0.865578
     71          1           0      -14.813999   -1.446763    0.868395
     72          1           0      -12.036639    0.684278    1.731988
     73          1           0       -9.749363    1.565669    1.636453
     74          6           0       -6.750972    2.846430    0.812559
     75          6           0       -6.611040    4.219363    0.759272
     76          1           0       -5.920063    4.738125    1.414146
     77          1           0       -6.160910    2.269051    1.516266
     78          1           0       -9.098563    2.443897   -1.589725
     79          1           0       -8.887501    4.886807   -1.674582
     80          1           0       -7.604138    8.141834   -0.802651
     81          1           0       -7.708035    6.858453   -2.033471
     82          1           0       -8.995438    7.029477   -0.803879
 ---------------------------------------------------------------------

 The electronic state is 1-A.
 Alpha  occ. eigenvalues --  -89.12357 -89.06332 -89.06206 -89.05327 -19.25364
 Alpha  occ. eigenvalues --  -19.23926 -19.23810 -19.19183 -14.43495 -14.43256
 Alpha  occ. eigenvalues --  -14.41895 -14.37700 -10.36293 -10.29939 -10.29738
 Alpha  occ. eigenvalues --  -10.28988 -10.28952 -10.28902 -10.28332 -10.28298
 Alpha  occ. eigenvalues --  -10.28097 -10.27980 -10.27943 -10.27810 -10.27808
 Alpha  occ. eigenvalues --  -10.27473 -10.27380 -10.27330 -10.26926 -10.26647
 Alpha  occ. eigenvalues --  -10.26628 -10.26554 -10.26020 -10.25942 -10.25513
 Alpha  occ. eigenvalues --  -10.24598 -10.24478 -10.24380 -10.24196 -10.24187
 Alpha  occ. eigenvalues --  -10.23778 -10.23289 -10.23280 -10.23261 -10.23257
 Alpha  occ. eigenvalues --  -10.23244 -10.23222 -10.23177 -10.23150 -10.23067
 Alpha  occ. eigenvalues --  -10.22807 -10.22699 -10.22661 -10.22620  -8.10436
 Alpha  occ. eigenvalues --   -8.04787  -8.04648  -8.03773  -6.04211  -6.03628
 Alpha  occ. eigenvalues --   -6.03437  -5.98464  -5.98326  -5.98092  -5.97953
 Alpha  occ. eigenvalues --   -5.97742  -5.97605  -5.97446  -5.97076  -5.96739
 Alpha  occ. eigenvalues --   -1.15174  -1.11013  -1.10907  -1.07746  -1.05675
 Alpha  occ. eigenvalues --   -1.00607  -0.95015  -0.94445  -0.93878  -0.93386
 Alpha  occ. eigenvalues --   -0.92044  -0.90972  -0.89329  -0.89285  -0.87428
 Alpha  occ. eigenvalues --   -0.86674  -0.83192  -0.81637  -0.80886  -0.79939
 Alpha  occ. eigenvalues --   -0.79732  -0.78856  -0.78505  -0.78405  -0.77862
 Alpha  occ. eigenvalues --   -0.77298  -0.77079  -0.76234  -0.75724  -0.73402
 Alpha  occ. eigenvalues --   -0.72971  -0.71420  -0.70157  -0.68097  -0.67284
 Alpha  occ. eigenvalues --   -0.66097  -0.65630  -0.65432  -0.64458  -0.63956
 Alpha  occ. eigenvalues --   -0.63601  -0.62404  -0.61961  -0.61464  -0.59971
 Alpha  occ. eigenvalues --   -0.58792  -0.57781  -0.56778  -0.56627  -0.56449
 Alpha  occ. eigenvalues --   -0.56224  -0.55583  -0.55098  -0.54801  -0.54736
 Alpha  occ. eigenvalues --   -0.53913  -0.52718  -0.51866  -0.51617  -0.51523
 Alpha  occ. eigenvalues --   -0.50578  -0.50488  -0.49555  -0.49448  -0.49436
 Alpha  occ. eigenvalues --   -0.49316  -0.48126  -0.47978  -0.47549  -0.46994
 Alpha  occ. eigenvalues --   -0.46839  -0.46551  -0.45560  -0.44980  -0.44910
 Alpha  occ. eigenvalues --   -0.44523  -0.44454  -0.44378  -0.44229  -0.44008
 Alpha  occ. eigenvalues --   -0.43652  -0.43495  -0.43109  -0.42832  -0.42792
 Alpha  occ. eigenvalues --   -0.42576  -0.41784  -0.41407  -0.41122  -0.40933
 Alpha  occ. eigenvalues --   -0.40797  -0.40543  -0.40390  -0.40331  -0.40267
 Alpha  occ. eigenvalues --   -0.39481  -0.39308  -0.38920  -0.38581  -0.38266
 Alpha  occ. eigenvalues --   -0.38164  -0.37862  -0.37724  -0.37166  -0.37105
 Alpha  occ. eigenvalues --   -0.36325  -0.35714  -0.35383  -0.35019  -0.34892
 Alpha  occ. eigenvalues --   -0.34686  -0.34568  -0.34379  -0.34296  -0.33194
 Alpha  occ. eigenvalues --   -0.32886  -0.32008  -0.30610  -0.30201  -0.29636
 Alpha  occ. eigenvalues --   -0.28644  -0.28314  -0.28100  -0.27964  -0.27399
 Alpha  occ. eigenvalues --   -0.27336  -0.26994  -0.25977  -0.24796  -0.23775
 Alpha  occ. eigenvalues --   -0.21019  -0.18738
 Alpha virt. eigenvalues --   -0.12123  -0.07427  -0.07010  -0.04034  -0.02576
 Alpha virt. eigenvalues --   -0.01569  -0.01076  -0.00720  -0.00488  -0.00079
 Alpha virt. eigenvalues --    0.00110   0.00141   0.00969   0.02421   0.02706

 Mulliken charges:
               1
     1  C   -0.183374
     2  O   -0.345410
     3  C    0.179455
     4  C   -0.141526
     5  C   -0.074205
     6  C    0.053833
     7  N   -0.546670
     8  C    0.201767
     9  C   -0.124810
    10  C   -0.047509
    11  C    0.006961
    12  C   -0.116219
    13  C   -0.124671
    14  H    0.133633
    15  H    0.112554
    16  C   -0.295503
    17  S    0.352568
    18  C   -0.267236
    19  C   -0.013836
    20  C   -0.062593
    21  H    0.108023
    22  H    0.106241
    23  C   -0.250907
    24  S    0.363206
    25  C   -0.271485
    26  C   -0.018501
    27  C   -0.029601
    28  H    0.109955
    29  H    0.110472
    30  C   -0.247664
    31  C   -0.022020
    32  C   -0.016959
    33  C   -0.317558
    34  S    0.376557
    35  C    0.144928
    36  C   -0.145064
    37  C   -0.037464
    38  C   -0.080871
    39  C    0.144412
    40  C    0.169750
    41  N   -0.547198
    42  S    0.579453
    43  N   -0.515830
    44  C    0.110323
    45  C   -0.216808
    46  C    0.106008
    47  N   -0.281477
    48  C    0.467816
    49  O   -0.340795
    50  H    0.264836
    51  O   -0.330363
    52  H    0.157229
    53  H    0.142681
    54  H    0.118036
    55  H    0.140829
    56  H    0.109762
    57  H    0.101669
    58  H    0.132496
    59  C    0.057617
    60  C   -0.074940
    61  C   -0.141651
    62  C    0.178997
    63  C   -0.096490
    64  C   -0.071685
    65  H    0.122413
    66  H    0.116731
    67  O   -0.346363
    68  C   -0.183278
    69  H    0.126828
    70  H    0.125871
    71  H    0.143308
    72  H    0.121521
    73  H    0.118940
    74  C   -0.070457
    75  C   -0.095584
    76  H    0.118221
    77  H    0.122660
    78  H    0.117956
    79  H    0.121452
    80  H    0.144079
    81  H    0.127233
    82  H    0.125298
 Sum of Mulliken charges =  -0.00000

 Dipole moment (field-independent basis, Debye):
    X=             -6.5618    Y=             -5.5572    Z=             -0.1383  Tot=              8.5999
 Quadrupole moment (field-independent basis, Debye-Ang):
   XX=           -239.9978   YY=           -332.7692   ZZ=           -338.8361
   XY=            -66.7537   XZ=             -5.9823   YZ=             -6.1927

 Normal termination of Gaussian 16 at Fri Jul  9 20:31:28 2021.
