 Gaussian 09, Revision D.01,
 Gaussian 09:  ES64L-G09RevD.01 24-Apr-2013

 -------------------------------------
 #N PBE1PBE/6-311G(d,p) TD(NStates=10)
 -------------------------------------

 ----
 Name
 ----
 Symbolic Z-matrix:
 Charge =  0 Multiplicity = 1

                         Standard orientation:
 ---------------------------------------------------------------------
 Center     Atomic      Atomic             Coordinates (Angstroms)
 Number     Number       Type             X           Y           Z
 ---------------------------------------------------------------------
      1          7           0       -4.334466    0.091766   -0.012098
      2          6           0       -4.941970   -1.170533    0.004853
      3          6           0       -6.328753   -1.213314   -0.218484
      4          6           0       -7.002632   -2.424504   -0.212842
      5          6           0       -6.312191   -3.616267    0.013202
      6          6           0       -4.940634   -3.574271    0.240283
      7          6           0       -4.249417   -2.364901    0.240740
      8          6           0       -0.474431    0.860577   -0.018027
      9          6           0       -1.218523    2.052229    0.003721
     10          6           0       -2.651490    1.845206    0.024011
     11          7           0       -3.382760    2.960053    0.042894
     12         16           0       -2.298314    4.190193    0.041470
     13          7           0       -0.885998    3.353582    0.014083
     14          6           0       -3.036354    0.485715    0.013173
     15         16           0       -1.609346   -0.495226   -0.027785
     16          8           0        8.054517   -1.577076   -0.010016
     17          6           0        6.738194   -1.891467   -0.017132
     18          6           0        5.777462   -0.743968   -0.010336
     19          6           0        6.301212    0.571355    0.003465
     20          7           0        6.788499    1.624046    0.014797
     21          6           0        4.436397   -1.034883   -0.017817
     22          6           0        3.317712   -0.170759   -0.014335
     23          6           0        3.208502    1.218811   -0.001343
     24          6           0        1.898244    1.693908   -0.001857
     25          6           0        0.932798    0.680079   -0.014568
     26         16           0        1.698955   -0.887135   -0.027690
     27          8           0        6.387007   -3.042960   -0.028360
     28          1           0       -4.973091    0.875945   -0.069114
     29          1           0       -6.870426   -0.290628   -0.400821
     30          1           0       -8.071919   -2.438539   -0.388340
     31          1           0       -6.838887   -4.562569    0.013870
     32          1           0       -4.392185   -4.490411    0.425331
     33          1           0       -3.189181   -2.369351    0.446427
     34          1           0        8.185026   -0.618623   -0.001280
     35          1           0        4.237378   -2.103645   -0.028132
     36          1           0        4.072089    1.868944    0.008468
     37          1           0        1.626597    2.739637    0.006703
 ---------------------------------------------------------------------

 SCF Done:  E(RPBE1PBE) =  -2254.55261939     A.U. after   19 cycles

 Excitation energies and oscillator strengths:

 Excited State   1:      Singlet-A      1.5917 eV  778.92 nm  f=0.2370  <S**2>=0.000
     105 ->106         0.70031
     105 ->107        -0.11969
 This state for optimization and/or second-order correction.
 Total Energy, E(TD-HF/TD-KS) =  -2254.49412389
 Copying the excited state density for this state as the 1-particle RhoCI density.

 Excited State   2:      Singlet-A      2.6683 eV  464.66 nm  f=0.9197  <S**2>=0.000
     104 ->106         0.16201
     105 ->106         0.12491
     105 ->107         0.67687

 Excited State   3:      Singlet-A      3.1656 eV  391.66 nm  f=0.1262  <S**2>=0.000
     104 ->106         0.67631
     105 ->107        -0.15288
     105 ->109         0.11518

 Excited State   4:      Singlet-A      3.3798 eV  366.84 nm  f=0.0006  <S**2>=0.000
     105 ->108         0.63849
     105 ->110         0.28129

 Excited State   5:      Singlet-A      3.6100 eV  343.44 nm  f=0.0096  <S**2>=0.000
     101 ->106         0.12529
     103 ->106         0.68366
     105 ->109         0.12065

 Excited State   6:      Singlet-A      3.8329 eV  323.47 nm  f=0.0856  <S**2>=0.000
     100 ->106        -0.13324
     101 ->106         0.60434
     103 ->106        -0.11929
     105 ->108         0.11713
     105 ->110        -0.26667
     105 ->111        -0.10073

 Excited State   7:      Singlet-A      3.8374 eV  323.09 nm  f=0.0001  <S**2>=0.000
     102 ->106         0.64691
     102 ->107         0.27189

 Excited State   8:      Singlet-A      3.8807 eV  319.49 nm  f=0.0241  <S**2>=0.000
     100 ->106         0.24306
     101 ->106         0.30813
     105 ->108        -0.22693
     105 ->110         0.51904

 Excited State   9:      Singlet-A      3.9232 eV  316.03 nm  f=0.1506  <S**2>=0.000
     103 ->106        -0.10459
     104 ->107         0.28900
     105 ->109         0.61481

 Excited State  10:      Singlet-A      4.0742 eV  304.31 nm  f=0.0094  <S**2>=0.000
     100 ->106         0.64104
     105 ->108         0.12310
     105 ->110        -0.24893

 The electronic state is 1-A.
 Alpha  occ. eigenvalues --  -89.13878 -89.10623 -89.06661 -19.23775 -19.17503
 Alpha  occ. eigenvalues --  -14.48198 -14.45444 -14.44111 -14.38445 -10.35833
 Alpha  occ. eigenvalues --  -10.35266 -10.31586 -10.31037 -10.30837 -10.30113
 Alpha  occ. eigenvalues --  -10.29358 -10.27955 -10.27456 -10.26833 -10.26761
 Alpha  occ. eigenvalues --  -10.26292 -10.26157 -10.25956 -10.25902 -10.25241
 Alpha  occ. eigenvalues --  -10.25221 -10.24363  -8.11836  -8.08909  -8.05055
 Alpha  occ. eigenvalues --   -6.05622  -6.05029  -6.04846  -6.02601  -6.02202
 Alpha  occ. eigenvalues --   -6.01883  -5.98741  -5.98381  -5.97994  -1.12764
 Alpha  occ. eigenvalues --   -1.08334  -1.04855  -1.04434  -0.95314  -0.94616
 Alpha  occ. eigenvalues --   -0.94444  -0.92767  -0.90932  -0.86026  -0.82530
 Alpha  occ. eigenvalues --   -0.81708  -0.80691  -0.79796  -0.78187  -0.75041
 Alpha  occ. eigenvalues --   -0.70734  -0.69345  -0.67704  -0.67319  -0.64247
 Alpha  occ. eigenvalues --   -0.63611  -0.62945  -0.60511  -0.59717  -0.58111
 Alpha  occ. eigenvalues --   -0.57090  -0.56603  -0.54230  -0.53826  -0.51267
 Alpha  occ. eigenvalues --   -0.50482  -0.49377  -0.48568  -0.47821  -0.47365
 Alpha  occ. eigenvalues --   -0.46935  -0.46514  -0.46479  -0.45446  -0.45201
 Alpha  occ. eigenvalues --   -0.43600  -0.43093  -0.41520  -0.41290  -0.40874
 Alpha  occ. eigenvalues --   -0.39886  -0.39758  -0.39560  -0.38790  -0.38409
 Alpha  occ. eigenvalues --   -0.38273  -0.37834  -0.36846  -0.36162  -0.36139
 Alpha  occ. eigenvalues --   -0.34655  -0.33584  -0.32307  -0.31246  -0.30067
 Alpha  occ. eigenvalues --   -0.29070  -0.28864  -0.28539  -0.26229  -0.20330
 Alpha virt. eigenvalues --   -0.12787  -0.09048  -0.04216  -0.03792  -0.03629
 Alpha virt. eigenvalues --   -0.01439  -0.00799   0.01205   0.02116   0.02682
 Alpha virt. eigenvalues --    0.02808   0.03244   0.04102   0.04167   0.05173

 Mulliken charges:
               1
     1  N   -0.518717
     2  C    0.209629
     3  C   -0.117086
     4  C   -0.104363
     5  C   -0.093660
     6  C   -0.114171
     7  C   -0.105333
     8  C   -0.336963
     9  C    0.263391
    10  C    0.134087
    11  N   -0.522110
    12  S    0.580603
    13  N   -0.538507
    14  C    0.063225
    15  S    0.448612
    16  O   -0.316499
    17  C    0.493975
    18  C   -0.224319
    19  C    0.018696
    20  N   -0.291067
    21  C    0.069157
    22  C   -0.312952
    23  C   -0.005371
    24  C   -0.013750
    25  C   -0.193585
    26  S    0.321305
    27  O   -0.341588
    28  H    0.263953
    29  H    0.114055
    30  H    0.117154
    31  H    0.116333
    32  H    0.117211
    33  H    0.140928
    34  H    0.258049
    35  H    0.138972
    36  H    0.146065
    37  H    0.134642
 Sum of Mulliken charges =   0.00000

 Dipole moment (field-independent basis, Debye):
    X=            -12.9734    Y=              1.1826    Z=             -0.0228  Tot=             13.0272
 Quadrupole moment (field-independent basis, Debye-Ang):
   XX=           -191.8053   YY=           -175.7409   ZZ=           -179.8184
   XY=             18.3873   XZ=              1.9171   YZ=             -1.0960

 Normal termination of Gaussian 09 at Sat Sep 11 09:24:03 2021.
