 Gaussian 16, Revision C.01,
 Gaussian 16:  ES64L-G16RevC.01  3-Jul-2019

 ---------------------------------------
 #N TD(NStates=10) CAM-B3lYP/6-311G(d,p)
 ---------------------------------------

 ---------
 C25H20ON4
 ---------
 Symbolic Z-matrix:
 Charge =  0 Multiplicity = 1

                         Standard orientation:
 ---------------------------------------------------------------------
 Center     Atomic      Atomic             Coordinates (Angstroms)
 Number     Number       Type             X           Y           Z
 ---------------------------------------------------------------------
      1          6           0       -4.631031    5.361136   -2.411965
      2          6           0        0.952221    5.740697   -1.473753
      3          6           0       -0.146433   -0.445370    0.147030
      4          6           0       -0.947089    0.692174   -0.068337
      5          6           0       -2.359020    0.429567   -0.016011
      6          6           0       -2.679179   -0.908980    0.260187
      7          1           0       -5.288656   -4.617098    1.156981
      8          1           0        0.860507    7.799804   -0.847875
      9          6           0       -2.784972    2.629555   -0.531279
     10          6           0       -1.353809    2.914069   -0.481952
     11          6           0        7.824722   -5.776095   -3.623969
     12          6           0        8.820585    3.045063    3.915736
     13          6           0       -3.958167   -1.574327    0.389483
     14          6           0       -5.176556   -0.890741    0.151509
     15          1           0       -7.291372   -0.958003    0.072563
     16          6           0       -4.043530   -2.938276    0.753936
     17          1           0       -5.141231    0.149716   -0.135119
     18          6           0        1.297547   -0.598599    0.150351
     19          6           0        2.162457    0.505724    0.306889
     20          6           0        3.536785    0.351629    0.317724
     21          6           0        4.132468   -0.918346    0.171651
     22          6           0        3.273532   -2.027315    0.018133
     23          6           0        1.901525   -1.865332    0.006245
     24          1           0        1.739779    1.494807    0.407860
     25          1           0        4.164243    1.225272    0.435011
     26          6           0       -5.262430   -3.570822    0.872697
     27          1           0        3.691571   -3.018690   -0.094374
     28          1           0        1.284605   -2.747058   -0.127164
     29          6           0        0.404280    6.818861   -0.779223
     30          6           0       -0.731085    6.628444    0.007254
     31          6           0       -6.479154   -2.889616    0.638832
     32          1           0       -6.588008    6.143747   -1.971527
     33          6           0       -6.394931   -1.527437    0.271705
     34          6           0        6.371743   -0.113043    0.805884
     35          6           0        7.424824    0.474129    0.091519
     36          6           0        8.271763    1.383955    0.703834
     37          6           0        8.078764    1.742664    2.045104
     38          6           0        7.027087    1.165339    2.763738
     39          6           0        6.191132    0.237049    2.144271
     40          1           0        7.579146    0.209308   -0.947690
     41          1           0        9.088486    1.839686    0.156997
     42          6           0       -7.695069   -3.647394    0.790412
     43          1           0        6.857048    1.415032    3.802069
     44          1           0        5.387599   -0.216572    2.712302
     45          6           0        6.141089   -2.190242   -0.470033
     46          6           0        7.052582   -2.993299    0.228903
     47          6           0        7.680930   -4.057226   -0.398404
     48          6           0        7.402670   -4.356297   -1.739342
     49          6           0        6.491011   -3.562645   -2.442798
     50          6           0        5.877831   -2.482852   -1.808608
     51          1           0        7.269510   -2.776009    1.267963
     52          1           0        8.387370   -4.680452    0.136639
     53          1           0        6.261671   -3.761504   -3.480711
     54          1           0        5.184685   -1.863495   -2.365415
     55          6           0       -9.015144   -3.303944    0.695865
     56          1           0       -2.717927    4.412890   -2.611118
     57          1           0       -5.148781    3.074038    0.663746
     58          1           0       -7.506319   -4.683242    1.059202
     59          1           0       -4.487420    5.987204   -3.285059
     60          1           0       -6.913955    4.681992    0.008889
     61          6           0       -1.326181    5.372509    0.088090
     62          1           0        0.798017    3.639362   -1.911234
     63          1           0        1.835597    5.880502   -2.086415
     64          6           0       -0.783844    4.283523   -0.607833
     65          6           0      -10.121801   -4.275787    0.951255
     66          1           0       -1.154853    7.458551    0.560742
     67          1           0       -2.205096    5.237183    0.706238
     68         16           0       -1.186602   -1.801887    0.445836
     69          7           0       -3.247730    1.425711   -0.272546
     70          7           0       -0.483638    1.946718   -0.288249
     71          7           0        5.519459   -1.074533    0.175518
     72          6           0        0.368612    4.480809   -1.381344
     73          6           0       -3.805550    3.643200   -0.914214
     74          6           0       -3.629759    4.472905   -2.029876
     75          6           0       -5.004933    3.721022   -0.192913
     76          6           0       -5.813238    5.444955   -1.677486
     77          6           0       -5.996733    4.623060   -0.565829
     78          1           0        8.446316   -6.647642   -3.819049
     79          1           0        6.774233   -6.034687   -3.789716
     80          1           0        8.113716   -4.965439   -4.300067
     81          1           0        9.616962    3.763855    4.097804
     82          1           0        7.852263    3.522568    4.095030
     83          1           0        8.939376    2.192469    4.591564
     84          8           0        8.064222   -5.426213   -2.261112
     85          8           0        8.959743    2.649126    2.551526
     86          1           0       -3.143257   -3.508059    0.950856
     87          8           0      -11.240290   -3.925952    1.237937
     88          8           0       -9.834414   -5.595084    0.867360
     89          6           0       -9.478038   -1.979660    0.450833
     90          7           0       -9.870299   -0.911276    0.245382
     91          1           0       -8.989770   -5.751540    0.426869
 ---------------------------------------------------------------------

 SCF Done:  E(RCAM-B3LYP) =  -2766.96837589     A.U. after   17 cycles

 Excitation energies and oscillator strengths:

 Excited State   1:      Singlet-A      2.2487 eV  551.35 nm  f=0.9475  <S**2>=0.000
     198 -> 200        0.20922
     199 -> 200        0.64075
     199 -> 201       -0.17326
 This state for optimization and/or second-order correction.
 Total Energy, E(TD-HF/TD-DFT) =  -2766.88573692
 Copying the excited state density for this state as the 1-particle RhoCI density.

 Excited State   2:      Singlet-A      3.2304 eV  383.80 nm  f=0.5853  <S**2>=0.000
     198 -> 201        0.28942
     199 -> 200        0.15033
     199 -> 201        0.58345
     199 -> 203        0.11676

 Excited State   3:      Singlet-A      3.3266 eV  372.70 nm  f=0.1827  <S**2>=0.000
     191 -> 200       -0.13730
     193 -> 200        0.14215
     193 -> 201       -0.11015
     195 -> 200        0.13641
     197 -> 200       -0.16999
     198 -> 200        0.54043
     198 -> 201       -0.10953
     199 -> 200       -0.16468

 Excited State   4:      Singlet-A      3.4655 eV  357.77 nm  f=0.0438  <S**2>=0.000
     186 -> 200        0.13061
     186 -> 201       -0.10313
     189 -> 200       -0.11464
     191 -> 200        0.30860
     191 -> 201       -0.20611
     192 -> 200        0.23662
     192 -> 201       -0.15369
     193 -> 200       -0.27405
     193 -> 201        0.16082
     197 -> 200       -0.12219
     198 -> 200        0.23854

 Excited State   5:      Singlet-A      3.7194 eV  333.34 nm  f=0.1652  <S**2>=0.000
     185 -> 200        0.10458
     197 -> 200        0.56659
     197 -> 201       -0.24061
     198 -> 200        0.17830
     199 -> 202        0.15656

 Excited State   6:      Singlet-A      4.0554 eV  305.72 nm  f=0.5905  <S**2>=0.000
     198 -> 200       -0.13219
     198 -> 202        0.10525
     199 -> 202        0.48402
     199 -> 203       -0.26853
     199 -> 204        0.24895
     199 -> 210        0.11889

 Excited State   7:      Singlet-A      4.0938 eV  302.85 nm  f=0.0854  <S**2>=0.000
     192 -> 200       -0.10545
     198 -> 204       -0.20327
     199 -> 202       -0.10919
     199 -> 203        0.29700
     199 -> 204        0.51330
     199 -> 211       -0.13526

 Excited State   8:      Singlet-A      4.3217 eV  286.89 nm  f=0.1104  <S**2>=0.000
     187 -> 200        0.41825
     187 -> 201        0.16126
     195 -> 200        0.25894
     195 -> 201        0.10023
     198 -> 201        0.24938
     198 -> 206       -0.12393
     199 -> 201       -0.18171
     199 -> 206       -0.15542

 Excited State   9:      Singlet-A      4.3789 eV  283.14 nm  f=0.0717  <S**2>=0.000
     186 -> 200        0.10030
     187 -> 200        0.34136
     187 -> 201        0.13948
     189 -> 200        0.10864
     192 -> 200        0.10605
     193 -> 200        0.13523
     195 -> 200       -0.25103
     198 -> 201       -0.29355
     198 -> 206       -0.13273
     199 -> 201        0.18886
     199 -> 206       -0.15975

 Excited State  10:      Singlet-A      4.4865 eV  276.35 nm  f=0.0369  <S**2>=0.000
     188 -> 200       -0.14412
     191 -> 200       -0.19778
     192 -> 200        0.30649
     192 -> 201       -0.10755
     196 -> 200        0.11530
     198 -> 201        0.16002
     198 -> 204       -0.16395
     199 -> 203       -0.14986
     199 -> 204        0.21699
     199 -> 208       -0.12581
     199 -> 210       -0.13825
     199 -> 211        0.23089

 The electronic state is 1-A.
 Alpha  occ. eigenvalues --  -88.96987 -19.24403 -19.22883 -19.22816 -19.17765
 Alpha  occ. eigenvalues --  -14.42075 -14.40917 -14.40776 -14.38356 -10.39009
 Alpha  occ. eigenvalues --  -10.31982 -10.31772 -10.31708 -10.31627 -10.30954
 Alpha  occ. eigenvalues --  -10.30727 -10.30686 -10.30681 -10.30605 -10.30307
 Alpha  occ. eigenvalues --  -10.30254 -10.29816 -10.29648 -10.29110 -10.29093
 Alpha  occ. eigenvalues --  -10.29032 -10.28399 -10.28001 -10.27393 -10.26940
 Alpha  occ. eigenvalues --  -10.26863 -10.26738 -10.26628 -10.26487 -10.25986
 Alpha  occ. eigenvalues --  -10.25964 -10.25900 -10.25826 -10.25801 -10.25772
 Alpha  occ. eigenvalues --  -10.25749 -10.25710 -10.25701 -10.25662 -10.25635
 Alpha  occ. eigenvalues --  -10.25587 -10.25577 -10.25567 -10.25556 -10.25555
 Alpha  occ. eigenvalues --  -10.25447 -10.25372 -10.25279 -10.25238 -10.25216
 Alpha  occ. eigenvalues --  -10.24999 -10.24715  -8.05887  -6.02257  -6.01859
 Alpha  occ. eigenvalues --   -6.01606  -1.19350  -1.15619  -1.15556  -1.10622
 Alpha  occ. eigenvalues --   -1.08385  -1.05827  -1.01273  -0.99390  -0.99067
 Alpha  occ. eigenvalues --   -0.96897  -0.95554  -0.95212  -0.95058  -0.94840
 Alpha  occ. eigenvalues --   -0.93324  -0.92381  -0.88343  -0.88141  -0.85720
 Alpha  occ. eigenvalues --   -0.85644  -0.85028  -0.84864  -0.84581  -0.84190
 Alpha  occ. eigenvalues --   -0.83899  -0.83692  -0.83657  -0.82784  -0.81921
 Alpha  occ. eigenvalues --   -0.80365  -0.79223  -0.77386  -0.76294  -0.75506
 Alpha  occ. eigenvalues --   -0.73321  -0.71643  -0.71328  -0.70558  -0.70396
 Alpha  occ. eigenvalues --   -0.70353  -0.69849  -0.69498  -0.69003  -0.68549
 Alpha  occ. eigenvalues --   -0.68030  -0.67705  -0.66406  -0.65656  -0.65328
 Alpha  occ. eigenvalues --   -0.64460  -0.62704  -0.62408  -0.62253  -0.61241
 Alpha  occ. eigenvalues --   -0.60903  -0.60348  -0.59984  -0.59428  -0.57496
 Alpha  occ. eigenvalues --   -0.56955  -0.56756  -0.56459  -0.56154  -0.55125
 Alpha  occ. eigenvalues --   -0.55052  -0.54541  -0.54366  -0.54034  -0.53487
 Alpha  occ. eigenvalues --   -0.53459  -0.52952  -0.52887  -0.52671  -0.52520
 Alpha  occ. eigenvalues --   -0.51939  -0.51706  -0.51513  -0.51027  -0.50879
 Alpha  occ. eigenvalues --   -0.50670  -0.50498  -0.50251  -0.50138  -0.49947
 Alpha  occ. eigenvalues --   -0.49795  -0.49718  -0.49500  -0.49397  -0.48338
 Alpha  occ. eigenvalues --   -0.47848  -0.47739  -0.47078  -0.46729  -0.46545
 Alpha  occ. eigenvalues --   -0.46217  -0.46061  -0.46006  -0.45823  -0.45317
 Alpha  occ. eigenvalues --   -0.44639  -0.44477  -0.44167  -0.43931  -0.43779
 Alpha  occ. eigenvalues --   -0.43262  -0.43115  -0.42936  -0.42314  -0.42112
 Alpha  occ. eigenvalues --   -0.41879  -0.41648  -0.41536  -0.40775  -0.40565
 Alpha  occ. eigenvalues --   -0.40364  -0.40153  -0.40118  -0.39252  -0.39027
 Alpha  occ. eigenvalues --   -0.38599  -0.38487  -0.36994  -0.35055  -0.34098
 Alpha  occ. eigenvalues --   -0.33624  -0.33036  -0.32855  -0.32539  -0.32132
 Alpha  occ. eigenvalues --   -0.31999  -0.31730  -0.31589  -0.31425  -0.30364
 Alpha  occ. eigenvalues --   -0.29360  -0.28900  -0.26117  -0.22708
 Alpha virt. eigenvalues --   -0.07957  -0.04801  -0.00681   0.00596   0.01119
 Alpha virt. eigenvalues --    0.02224   0.02339   0.03060   0.03106   0.03435
 Alpha virt. eigenvalues --    0.03632   0.03856   0.04177   0.05102   0.05896

 Mulliken charges:
               1
     1  C   -0.101587
     2  C   -0.104114
     3  C   -0.294630
     4  C    0.185628
     5  C    0.213313
     6  C   -0.331498
     7  H    0.097614
     8  H    0.107523
     9  C    0.134912
    10  C    0.113800
    11  C   -0.147962
    12  C   -0.148159
    13  C    0.010847
    14  C   -0.034390
    15  H    0.136874
    16  C   -0.105882
    17  H    0.148002
    18  C   -0.016174
    19  C   -0.023184
    20  C   -0.135038
    21  C    0.199870
    22  C   -0.130326
    23  C   -0.101048
    24  H    0.130576
    25  H    0.128163
    26  C   -0.076348
    27  H    0.126669
    28  H    0.106221
    29  C   -0.095352
    30  C   -0.102321
    31  C   -0.109184
    32  H    0.109782
    33  C   -0.052169
    34  C    0.026326
    35  C   -0.056940
    36  C   -0.094755
    37  C    0.162249
    38  C   -0.140332
    39  C   -0.048826
    40  H    0.113067
    41  H    0.115768
    42  C    0.035514
    43  H    0.118048
    44  H    0.116662
    45  C    0.024955
    46  C   -0.056898
    47  C   -0.094603
    48  C    0.162075
    49  C   -0.141125
    50  C   -0.050975
    51  H    0.113526
    52  H    0.116160
    53  H    0.117716
    54  H    0.117023
    55  C   -0.207786
    56  H    0.116798
    57  H    0.111877
    58  H    0.095392
    59  H    0.107530
    60  H    0.112738
    61  C   -0.031919
    62  H    0.110260
    63  H    0.107150
    64  C   -0.150648
    65  C    0.420524
    66  H    0.107648
    67  H    0.117680
    68  S    0.383811
    69  N   -0.327930
    70  N   -0.309457
    71  N   -0.487130
    72  C   -0.038006
    73  C   -0.150884
    74  C   -0.030212
    75  C   -0.037496
    76  C   -0.093604
    77  C   -0.102370
    78  H    0.137420
    79  H    0.116418
    80  H    0.117105
    81  H    0.137122
    82  H    0.117240
    83  H    0.116995
    84  O   -0.344931
    85  O   -0.345078
    86  H    0.109346
    87  O   -0.284656
    88  O   -0.291787
    89  C    0.044255
    90  N   -0.193431
    91  H    0.244953
 Sum of Mulliken charges =  -0.00000

 Dipole moment (field-independent basis, Debye):
    X=             12.9498    Y=              0.7509    Z=             -1.4652  Tot=             13.0540
 Quadrupole moment (field-independent basis, Debye-Ang):
   XX=           -458.8747   YY=           -288.2829   ZZ=           -311.2430
   XY=            -23.1053   XZ=             15.0541   YZ=             16.0681

 Normal termination of Gaussian 16 at Tue Jul 27 20:34:44 2021.
