 Gaussian 16, Revision B.01,
 Gaussian 16:  ES64L-G16RevB.01 20-Dec-2017

 ------------------------------------------------------------------
 #N TD(NStates=10) B3lYP/aug-cc-pVDZ SCRF=(Solvent=TetraHydroFuran)
 ------------------------------------------------------------------

 ----
 Name
 ----
 Symbolic Z-matrix:
 Charge =  0 Multiplicity = 1

                         Standard orientation:
 ---------------------------------------------------------------------
 Center     Atomic      Atomic             Coordinates (Angstroms)
 Number     Number       Type             X           Y           Z
 ---------------------------------------------------------------------
      1          6           0       -0.937367   -3.073447    0.186672
      2          6           0       -2.122867   -2.115248    0.081661
      3          6           0       -1.679316   -0.804099   -0.068452
      4          6           0       -0.249325   -0.787165   -0.077728
      5         16           0        1.036410    0.361025   -0.215518
      6          6           0        2.238860   -0.926149   -0.055578
      7          6           0        3.663445   -0.618716   -0.088081
      8          6           0        4.167072    0.639785    0.284618
      9          6           0        5.523215    0.918205    0.260048
     10          6           0        6.453643   -0.056471   -0.145370
     11          7           0        7.828021    0.221147   -0.178165
     12          6           0        8.300703    1.552970   -0.385806
     13          6           0        9.254197    2.109715    0.465769
     14          1           0        9.625209    1.528423    1.301420
     15          6           0        9.745666    3.397532    0.252908
     16          6           0        9.267005    4.157431   -0.817016
     17          6           0        8.304305    3.605310   -1.672687
     18          6           0        7.836741    2.318757   -1.466163
     19          1           0        7.103023    1.897060   -2.142771
     20          1           0        7.950783    4.202556   -2.504337
     21          8           0        9.668305    5.425275   -1.114274
     22          6           0       10.642233    6.039950   -0.282435
     23          1           0       10.285306    6.139026    0.748855
     24          1           0       11.585682    5.482513   -0.288556
     25          1           0       10.808033    7.030888   -0.701547
     26          1           0       10.488787    3.794368    0.931210
     27          6           0        8.790537   -0.816003    0.014590
     28          6           0        8.706892   -1.681719    1.105345
     29          6           0        9.647255   -2.694117    1.294967
     30          6           0       10.707870   -2.836370    0.396541
     31          6           0       10.805065   -1.960304   -0.692355
     32          6           0        9.855745   -0.970857   -0.884487
     33          1           0        9.935782   -0.303465   -1.734163
     34          1           0       11.631034   -2.085101   -1.381938
     35          8           0       11.686719   -3.780380    0.489179
     36          6           0       11.645727   -4.694126    1.575939
     37          1           0       11.722954   -4.177359    2.539191
     38          1           0       10.731032   -5.297522    1.559834
     39          1           0       12.508032   -5.346312    1.448547
     40          1           0        9.548391   -3.348753    2.150306
     41          1           0        7.894861   -1.569078    1.813892
     42          6           0        5.957184   -1.318867   -0.523743
     43          6           0        4.600126   -1.587169   -0.494737
     44          1           0        4.253834   -2.557328   -0.831925
     45          1           0        6.645870   -2.082701   -0.860973
     46          1           0        5.873589    1.893646    0.571326
     47          1           0        3.486389    1.408137    0.634689
     48          6           0        1.625489   -2.161053    0.078410
     49          6           0        0.219718   -2.083396    0.064821
     50          1           0        2.191968   -3.072577    0.214700
     51         16           0       -2.977646    0.322058   -0.184968
     52          6           0       -4.162184   -0.988087   -0.012416
     53          6           0       -3.516210   -2.217730    0.113955
     54          1           0       -4.064580   -3.142153    0.244654
     55          6           0       -5.567054   -0.737299   -0.045138
     56         16           0       -6.680862   -2.036515   -0.376555
     57          6           0       -8.117241   -1.007346   -0.249715
     58          6           0       -7.699721    0.298072    0.013178
     59          6           0       -6.283611    0.455188    0.144695
     60          6           0       -5.918293    1.776862    0.543528
     61          6           0       -7.002029    2.580666    0.716207
     62         16           0       -8.542754    1.781825    0.380001
     63          6           0       -6.929485    3.995445    1.127359
     64          8           0       -5.900200    4.586493    1.352715
     65          8           0       -8.156994    4.542399    1.221469
     66          6           0       -8.202058    5.929065    1.604344
     67          1           0       -7.756993    6.064628    2.591080
     68          1           0       -7.661788    6.539691    0.879736
     69          1           0       -9.257040    6.190991    1.617581
     70          1           0       -4.914608    2.135918    0.716605
     71          6           0       -9.376140   -1.653440   -0.354095
     72          6           0      -10.622163   -1.158916   -0.653764
     73          6           0      -10.831709    0.144243   -1.177590
     74          7           0      -10.995247    1.193976   -1.635252
     75          6           0      -11.834467   -2.036742   -0.645164
     76          8           0      -11.763023   -3.147544    0.146859
     77          1           0      -11.061204   -3.044195    0.799445
     78          8           0      -12.816952   -1.818928   -1.296115
     79          1           0       -9.331350   -2.730405   -0.206037
     80          6           0       -0.917271   -3.800420    1.548251
     81          1           0       -0.924169   -3.086302    2.374015
     82          1           0       -1.789433   -4.452223    1.648799
     83          1           0       -0.021019   -4.420217    1.637464
     84          6           0       -0.930182   -4.093261   -0.972236
     85          1           0       -0.947217   -3.587426   -1.939546
     86          1           0       -0.033600   -4.717316   -0.926403
     87          1           0       -1.802170   -4.750158   -0.911574
 ---------------------------------------------------------------------

 SCF Done:  E(RB3LYP) =  -3811.76331659     A.U. after   58 cycles

 Excitation energies and oscillator strengths:

 Excited State   1:      Singlet-A      1.5924 eV  778.59 nm  f=1.3188  <S**2>=0.000
     208 -> 209        0.70597
 This state for optimization and/or second-order correction.
 Total Energy, E(TD-HF/TD-DFT) =  -3811.70479593
 Copying the excited state density for this state as the 1-particle RhoCI density.

 Excited State   2:      Singlet-A      2.1717 eV  570.91 nm  f=0.6766  <S**2>=0.000
     207 -> 209        0.68605
     208 -> 210       -0.14489

 Excited State   3:      Singlet-A      2.4054 eV  515.44 nm  f=0.0177  <S**2>=0.000
     207 -> 209        0.15275
     208 -> 210        0.67720

 Excited State   4:      Singlet-A      2.8587 eV  433.70 nm  f=0.0297  <S**2>=0.000
     206 -> 209        0.55939
     207 -> 210       -0.31448
     208 -> 210       -0.11259
     208 -> 211        0.23804

 Excited State   5:      Singlet-A      2.9094 eV  426.15 nm  f=0.3623  <S**2>=0.000
     207 -> 210        0.40814
     208 -> 211        0.56133

 Excited State   6:      Singlet-A      2.9789 eV  416.21 nm  f=0.0603  <S**2>=0.000
     206 -> 209        0.39732
     207 -> 210        0.45540
     208 -> 211       -0.33541

 Excited State   7:      Singlet-A      3.1532 eV  393.20 nm  f=0.0045  <S**2>=0.000
     205 -> 209        0.70490

 Excited State   8:      Singlet-A      3.3297 eV  372.36 nm  f=0.0178  <S**2>=0.000
     207 -> 212        0.14018
     208 -> 212        0.68410

 Excited State   9:      Singlet-A      3.4627 eV  358.05 nm  f=0.0207  <S**2>=0.000
     201 -> 209       -0.12101
     202 -> 209        0.11174
     204 -> 209        0.64337

 Excited State  10:      Singlet-A      3.5038 eV  353.86 nm  f=0.0266  <S**2>=0.000
     200 -> 209       -0.13277
     201 -> 209        0.18743
     207 -> 211        0.63729

 The electronic state is 1-A.
 Alpha  occ. eigenvalues --  -88.93995 -88.93724 -88.93549 -88.92746 -19.20817
 Alpha  occ. eigenvalues --  -19.20779 -19.18649 -19.18602 -19.15297 -19.15264
 Alpha  occ. eigenvalues --  -14.36921 -14.34540 -10.34048 -10.33611 -10.26760
 Alpha  occ. eigenvalues --  -10.25472 -10.25465 -10.25419 -10.25188 -10.25134
 Alpha  occ. eigenvalues --  -10.24716 -10.24575 -10.24503 -10.24362 -10.24313
 Alpha  occ. eigenvalues --  -10.24209 -10.24055 -10.23940 -10.23884 -10.23789
 Alpha  occ. eigenvalues --  -10.23171 -10.22981 -10.22931 -10.22900 -10.22753
 Alpha  occ. eigenvalues --  -10.22356 -10.21813 -10.20957 -10.20849 -10.20802
 Alpha  occ. eigenvalues --  -10.20224 -10.20004 -10.20000 -10.19801 -10.19749
 Alpha  occ. eigenvalues --  -10.19748 -10.19727 -10.19618 -10.19551 -10.19382
 Alpha  occ. eigenvalues --  -10.19373 -10.19357 -10.19343 -10.18753 -10.18736
 Alpha  occ. eigenvalues --   -7.99994  -7.99652  -7.99460  -7.98687  -5.96345
 Alpha  occ. eigenvalues --   -5.95995  -5.95960  -5.95823  -5.95636  -5.95584
 Alpha  occ. eigenvalues --   -5.95445  -5.95252  -5.95027  -5.95025  -5.94669
 Alpha  occ. eigenvalues --   -5.94292  -1.12698  -1.12288  -1.07896  -1.07854
 Alpha  occ. eigenvalues --   -1.04629  -1.04171  -0.97694  -0.94170  -0.93216
 Alpha  occ. eigenvalues --   -0.92640  -0.89783  -0.87891  -0.87215  -0.86906
 Alpha  occ. eigenvalues --   -0.85583  -0.84897  -0.83649  -0.80293  -0.79121
 Alpha  occ. eigenvalues --   -0.77805  -0.77626  -0.77234  -0.76368  -0.76340
 Alpha  occ. eigenvalues --   -0.76030  -0.75499  -0.74913  -0.74396  -0.74034
 Alpha  occ. eigenvalues --   -0.73110  -0.71253  -0.70879  -0.70051  -0.69355
 Alpha  occ. eigenvalues --   -0.67226  -0.65256  -0.64175  -0.64048  -0.63673
 Alpha  occ. eigenvalues --   -0.62955  -0.62547  -0.62183  -0.61094  -0.60484
 Alpha  occ. eigenvalues --   -0.59265  -0.58324  -0.57447  -0.57241  -0.56137
 Alpha  occ. eigenvalues --   -0.55907  -0.55351  -0.55060  -0.54923  -0.53959
 Alpha  occ. eigenvalues --   -0.53362  -0.52433  -0.51833  -0.50913  -0.50163
 Alpha  occ. eigenvalues --   -0.49951  -0.49829  -0.49285  -0.48763  -0.48251
 Alpha  occ. eigenvalues --   -0.47993  -0.47522  -0.47474  -0.47270  -0.47140
 Alpha  occ. eigenvalues --   -0.46788  -0.45755  -0.45693  -0.45565  -0.45388
 Alpha  occ. eigenvalues --   -0.45104  -0.44775  -0.44313  -0.43826  -0.43629
 Alpha  occ. eigenvalues --   -0.43497  -0.43375  -0.43349  -0.42951  -0.42739
 Alpha  occ. eigenvalues --   -0.42420  -0.41972  -0.41920  -0.41759  -0.41412
 Alpha  occ. eigenvalues --   -0.41248  -0.40548  -0.40319  -0.39880  -0.39811
 Alpha  occ. eigenvalues --   -0.39559  -0.39319  -0.39084  -0.39023  -0.38672
 Alpha  occ. eigenvalues --   -0.38361  -0.38258  -0.38113  -0.37571  -0.37355
 Alpha  occ. eigenvalues --   -0.37326  -0.36929  -0.36694  -0.36190  -0.36102
 Alpha  occ. eigenvalues --   -0.35902  -0.35076  -0.34762  -0.34508  -0.34391
 Alpha  occ. eigenvalues --   -0.34173  -0.33922  -0.33858  -0.33813  -0.33643
 Alpha  occ. eigenvalues --   -0.33602  -0.32407  -0.31483  -0.30465  -0.30296
 Alpha  occ. eigenvalues --   -0.29143  -0.28476  -0.27610  -0.27429  -0.26824
 Alpha  occ. eigenvalues --   -0.26758  -0.26737  -0.26516  -0.25703  -0.24091
 Alpha  occ. eigenvalues --   -0.23528  -0.20551  -0.18368
 Alpha virt. eigenvalues --   -0.11744  -0.08568  -0.06333  -0.03913  -0.03321
 Alpha virt. eigenvalues --   -0.02434  -0.02158  -0.01888  -0.01693  -0.01692
 Alpha virt. eigenvalues --   -0.01360  -0.01124  -0.00988  -0.00860  -0.00610

 Mulliken charges:
               1
     1  C   -0.752825
     2  C   -0.326277
     3  C   -0.348919
     4  C   -0.360824
     5  S   -0.364060
     6  C   -0.280547
     7  C    1.649109
     8  C    0.597226
     9  C    0.361085
    10  C    0.967435
    11  N    0.187741
    12  C    0.451148
    13  C    1.415487
    14  H   -1.267442
    15  C    1.021063
    16  C    0.697773
    17  C    0.281032
    18  C    1.567283
    19  H   -1.286852
    20  H   -0.977237
    21  O   -0.685298
    22  C    1.373744
    23  H   -0.215365
    24  H   -0.214985
    25  H   -0.586173
    26  H   -1.216776
    27  C    0.296626
    28  C    2.048456
    29  C    1.373530
    30  C    0.417414
    31  C    0.330274
    32  C    0.578975
    33  H   -1.203416
    34  H   -0.962148
    35  O   -0.691839
    36  C    1.366910
    37  H   -0.216998
    38  H   -0.216818
    39  H   -0.582882
    40  H   -1.220758
    41  H   -1.327198
    42  C    0.308020
    43  C    0.574929
    44  H   -1.025198
    45  H   -1.245579
    46  H   -1.253951
    47  H   -1.064263
    48  C    1.489115
    49  C   -0.269358
    50  H   -1.135328
    51  S   -0.111336
    52  C   -0.345491
    53  C    1.633590
    54  H   -1.117889
    55  C    0.475661
    56  S   -0.067960
    57  C   -0.316842
    58  C    0.082134
    59  C    0.262907
    60  C    1.752686
    61  C   -0.118632
    62  S   -0.223051
    63  C    0.136115
    64  O   -0.649018
    65  O   -0.578440
    66  C    1.343213
    67  H   -0.232465
    68  H   -0.227555
    69  H   -0.483879
    70  H   -1.081740
    71  C    0.967664
    72  C    1.381785
    73  C   -0.708496
    74  N   -0.240631
    75  C    0.492295
    76  O   -0.491101
    77  H    0.181485
    78  O   -0.572766
    79  H   -0.986029
    80  C    2.095743
    81  H   -0.300706
    82  H   -0.362496
    83  H   -0.364456
    84  C    1.702999
    85  H   -0.280682
    86  H   -0.356517
    87  H   -0.345160
 Sum of Mulliken charges =  -0.00000

 Dipole moment (field-independent basis, Debye):
    X=             21.1960    Y=             -5.5162    Z=              7.3450  Tot=             23.1008
 Quadrupole moment (field-independent basis, Debye-Ang):
   XX=           -510.8680   YY=           -301.7643   ZZ=           -351.2529
   XY=              6.0138   XZ=            -34.6489   YZ=             -3.5437

 Normal termination of Gaussian 16 at Thu Jun 17 06:19:32 2021.
