 Gaussian 16, Revision B.01,
 Gaussian 16:  ES64L-G16RevB.01 20-Dec-2017

 -------------------------------------------------------
 #N B3LYP/6-311G(d,p) OPT SCRF=(Solvent=Dichloromethane)
 -------------------------------------------------------

 ------------
 C61H46O6N4S3
 ------------
 Symbolic Z-matrix:
 Charge =  0 Multiplicity = 1

 SCF Done:  E(RB3LYP) =  -4217.87398792     A.U. after   15 cycles
 SCF Done:  E(RB3LYP) =  -4217.87431184     A.U. after   10 cycles
 SCF Done:  E(RB3LYP) =  -4217.87437570     A.U. after   10 cycles
 SCF Done:  E(RB3LYP) =  -4217.87438054     A.U. after    9 cycles
 SCF Done:  E(RB3LYP) =  -4217.87439799     A.U. after    9 cycles
 SCF Done:  E(RB3LYP) =  -4217.87440748     A.U. after    9 cycles
 SCF Done:  E(RB3LYP) =  -4217.87441388     A.U. after   10 cycles
 SCF Done:  E(RB3LYP) =  -4217.87441967     A.U. after    8 cycles
 SCF Done:  E(RB3LYP) =  -4217.87442525     A.U. after    9 cycles
 SCF Done:  E(RB3LYP) =  -4217.87442622     A.U. after    7 cycles
 SCF Done:  E(RB3LYP) =  -4217.87442824     A.U. after    6 cycles
 SCF Done:  E(RB3LYP) =  -4217.87442826     A.U. after    7 cycles
 SCF Done:  E(RB3LYP) =  -4217.87442835     A.U. after    7 cycles
 SCF Done:  E(RB3LYP) =  -4217.87442836     A.U. after    7 cycles
 SCF Done:  E(RB3LYP) =  -4217.87442842     A.U. after    7 cycles
 SCF Done:  E(RB3LYP) =  -4217.87442847     A.U. after    7 cycles
 SCF Done:  E(RB3LYP) =  -4217.87442855     A.U. after    7 cycles
 SCF Done:  E(RB3LYP) =  -4217.87442862     A.U. after    6 cycles
 SCF Done:  E(RB3LYP) =  -4217.87442870     A.U. after    7 cycles
 SCF Done:  E(RB3LYP) =  -4217.87442873     A.U. after    6 cycles
 Optimization completed.
    -- Stationary point found.

                         Standard orientation:
 ---------------------------------------------------------------------
 Center     Atomic      Atomic             Coordinates (Angstroms)
 Number     Number       Type             X           Y           Z
 ---------------------------------------------------------------------
      1          6           0        7.543453   -1.338834    2.647249
      2          6           0        8.593460   -0.845302    1.653506
      3          6           0        7.988556   -0.270805    0.542686
      4          6           0        6.566321   -0.328280    0.700569
      5         16           0        5.150422    0.139252   -0.169079
      6          6           0        4.114742   -0.503870    1.126162
      7          6           0        4.885580   -1.038215    2.148865
      8          6           0        6.268218   -0.939075    1.907414
      9          1           0        4.434337   -1.476238    3.025573
     10          6           0        2.668782   -0.419313    1.005216
     11          6           0        2.044680    0.138770   -0.099346
     12          6           0        0.643078    0.227304   -0.252632
     13          6           0       -0.262479   -0.229733    0.686143
     14          6           0        0.325739   -0.813358    1.860869
     15          7           0       -0.347138   -1.294646    2.910049
     16         16           0        0.751926   -1.830196    3.995808
     17          7           0        2.127083   -1.466837    3.182423
     18          6           0        1.771488   -0.909081    2.023433
     19          6           0       -1.719458   -0.111955    0.485687
     20          6           0       -2.621314   -1.097348    0.923774
     21          6           0       -3.983769   -0.988241    0.687633
     22          6           0       -4.510766    0.115850   -0.001812
     23          6           0       -3.618491    1.107756   -0.440340
     24          6           0       -2.258378    0.993391   -0.196136
     25          1           0       -1.603032    1.787757   -0.533835
     26          1           0       -3.995739    1.973264   -0.970038
     27          7           0       -5.897494    0.225641   -0.245642
     28          6           0       -6.537845    1.495400   -0.220660
     29          6           0       -7.473800    1.842003   -1.204132
     30          6           0       -8.112108    3.075250   -1.173617
     31          6           0       -7.831607    4.018200   -0.171506
     32          6           0       -6.890130    3.660029    0.806711
     33          6           0       -6.259366    2.422068    0.791893
     34          1           0       -5.553183    2.167632    1.572920
     35          1           0       -6.668075    4.350240    1.612857
     36          6           0       -8.464390    5.361171   -0.151810
     37          6           0       -7.692388    6.504142    0.128610
     38          6           0       -8.231732    7.779482    0.149172
     39          6           0       -9.593551    7.965284   -0.120031
     40          6           0      -10.389813    6.853040   -0.397214
     41          6           0       -9.828478    5.574260   -0.413213
     42          8           0      -10.670944    4.522670   -0.719442
     43          6           0      -11.219711    3.845988    0.420333
     44          1           0      -11.818819    4.532996    1.027035
     45          1           0      -11.857989    3.053402    0.031588
     46          1           0      -10.429727    3.408194    1.037780
     47          1           0      -11.446138    6.941127   -0.610394
     48          8           0      -10.043750    9.249289   -0.091828
     49          6           0      -11.423639    9.493090   -0.364727
     50          1           0      -11.553663   10.570927   -0.291585
     51          1           0      -11.694299    9.161625   -1.371909
     52          1           0      -12.067455    8.998637    0.369226
     53          1           0       -7.614985    8.646019    0.353929
     54          1           0       -6.630987    6.383893    0.312820
     55          1           0       -8.827814    3.318217   -1.947526
     56          1           0       -7.695816    1.141315   -1.999995
     57          6           0       -6.672268   -0.937282   -0.523846
     58          6           0       -7.906732   -1.139136    0.106417
     59          6           0       -8.669348   -2.265965   -0.172197
     60          6           0       -8.228258   -3.242322   -1.080219
     61          6           0       -6.984863   -3.031508   -1.697256
     62          6           0       -6.222511   -1.899028   -1.435350
     63          1           0       -5.270327   -1.762672   -1.933798
     64          1           0       -6.603764   -3.768267   -2.395262
     65          6           0       -9.044881   -4.433082   -1.430107
     66          6           0       -9.712238   -5.219518   -0.464803
     67          6           0      -10.459731   -6.342894   -0.838852
     68          6           0      -10.554862   -6.703823   -2.186334
     69          6           0       -9.901002   -5.942626   -3.158318
     70          6           0       -9.165059   -4.833651   -2.768473
     71          1           0       -8.676051   -4.238477   -3.531175
     72          1           0       -9.987980   -6.225963   -4.199657
     73          8           0      -11.262900   -7.776078   -2.638375
     74          6           0      -11.957479   -8.590703   -1.695276
     75          1           0      -12.716140   -8.016354   -1.154449
     76          1           0      -12.443988   -9.369321   -2.279466
     77          1           0      -11.267668   -9.051750   -0.981459
     78          1           0      -10.955465   -6.932044   -0.083812
     79          8           0       -9.572137   -4.838096    0.836040
     80          6           0      -10.183381   -5.615993    1.863276
     81          1           0      -11.272510   -5.633335    1.758073
     82          1           0       -9.798164   -6.640226    1.870430
     83          1           0       -9.919758   -5.125426    2.798227
     84          1           0       -9.619299   -2.394998    0.328786
     85          1           0       -8.270826   -0.404203    0.814394
     86          1           0       -4.649645   -1.766104    1.039525
     87          1           0       -2.251811   -1.959816    1.460769
     88          1           0        0.271054    0.657654   -1.174423
     89          1           0        2.650148    0.524241   -0.911467
     90         16           0        9.133910    0.301429   -0.610487
     91          6           0       10.475405   -0.241868    0.415526
     92          6           0        9.994084   -0.827770    1.580275
     93          1           0       10.646914   -1.236679    2.339409
     94          6           0       11.852874   -0.053154    0.004031
     95          6           0       12.919250   -0.333250    0.887413
     96          6           0       14.229885   -0.159938    0.494245
     97          6           0       14.564400    0.305121   -0.798835
     98          6           0       13.497374    0.590314   -1.680315
     99          6           0       12.186854    0.414237   -1.288238
    100          1           0       11.400778    0.635448   -2.000429
    101          1           0       13.691241    0.949278   -2.681169
    102          6           0       15.961428    0.449306   -1.106234
    103          6           0       16.619256    0.846763   -2.236060
    104          6           0       15.992904    1.231819   -3.449856
    105          7           0       15.557472    1.558899   -4.472935
    106          6           0       18.117673    0.875951   -2.194771
    107          8           0       18.757363    0.569742   -1.217807
    108          8           0       18.756888    1.266017   -3.316313
    109          1           0       18.141273    1.486576   -4.030249
    110          1           0       16.638230    0.195703   -0.295168
    111          1           0       15.027065   -0.381786    1.194988
    112          1           0       12.715701   -0.679068    1.892327
    113          6           0        7.624933   -2.868064    2.845542
    114          1           0        7.546965   -3.392730    1.890994
    115          1           0        8.573780   -3.141759    3.314055
    116          1           0        6.814675   -3.210164    3.494340
    117          6           0        7.661878   -0.612231    4.004467
    118          1           0        7.606142    0.470856    3.876532
    119          1           0        6.854941   -0.922675    4.673071
    120          1           0        8.613321   -0.855103    4.484668
 ---------------------------------------------------------------------

 The electronic state is 1-A.
 Alpha  occ. eigenvalues --  -88.94244 -88.89361 -88.88938 -19.17636 -19.15577
 Alpha  occ. eigenvalues --  -19.15564 -19.15484 -19.13776 -19.11572 -14.35409
 Alpha  occ. eigenvalues --  -14.35361 -14.35127 -14.33259 -10.32364 -10.24364
 Alpha  occ. eigenvalues --  -10.24129 -10.24041 -10.23916 -10.23696 -10.23553
 Alpha  occ. eigenvalues --  -10.23399 -10.23136 -10.22825 -10.22573 -10.22481
 Alpha  occ. eigenvalues --  -10.22481 -10.22462 -10.22428 -10.22360 -10.22336
 Alpha  occ. eigenvalues --  -10.22101 -10.22030 -10.22017 -10.21878 -10.21725
 Alpha  occ. eigenvalues --  -10.21464 -10.21344 -10.20779 -10.20579 -10.19929
 Alpha  occ. eigenvalues --  -10.19847 -10.19606 -10.19522 -10.19456 -10.19317
 Alpha  occ. eigenvalues --  -10.19218 -10.19174 -10.19060 -10.19011 -10.18774
 Alpha  occ. eigenvalues --  -10.18669 -10.18610 -10.18438 -10.18205 -10.18127
 Alpha  occ. eigenvalues --  -10.18048 -10.17954 -10.17890 -10.17859 -10.17763
 Alpha  occ. eigenvalues --  -10.17711 -10.17693 -10.17660 -10.17655 -10.17618
 Alpha  occ. eigenvalues --  -10.17598 -10.17577 -10.17517 -10.17503 -10.17432
 Alpha  occ. eigenvalues --  -10.17276 -10.17063 -10.17062 -10.16646  -8.02499
 Alpha  occ. eigenvalues --   -7.97958  -7.97540  -5.98913  -5.98328  -5.98108
 Alpha  occ. eigenvalues --   -5.94261  -5.93895  -5.93851  -5.93526  -5.93484
 Alpha  occ. eigenvalues --   -5.93095  -1.11941  -1.07390  -1.07312  -1.07152
 Alpha  occ. eigenvalues --   -1.05554  -1.03650  -1.03157  -0.97532  -0.93643
 Alpha  occ. eigenvalues --   -0.92992  -0.90650  -0.89825  -0.88703  -0.87758
 Alpha  occ. eigenvalues --   -0.87384  -0.87014  -0.86055  -0.85507  -0.84819
 Alpha  occ. eigenvalues --   -0.84387  -0.83365  -0.80136  -0.79532  -0.79053
 Alpha  occ. eigenvalues --   -0.78114  -0.77516  -0.77443  -0.76941  -0.76211
 Alpha  occ. eigenvalues --   -0.76142  -0.75773  -0.75423  -0.75294  -0.74938
 Alpha  occ. eigenvalues --   -0.74635  -0.74162  -0.74145  -0.72503  -0.72049
 Alpha  occ. eigenvalues --   -0.71223  -0.70532  -0.69720  -0.68904  -0.68705
 Alpha  occ. eigenvalues --   -0.67788  -0.66072  -0.64354  -0.64163  -0.64006
 Alpha  occ. eigenvalues --   -0.63553  -0.63221  -0.62893  -0.62264  -0.61978
 Alpha  occ. eigenvalues --   -0.61811  -0.61030  -0.60837  -0.60368  -0.60077
 Alpha  occ. eigenvalues --   -0.59687  -0.58945  -0.58768  -0.57805  -0.57275
 Alpha  occ. eigenvalues --   -0.55640  -0.55427  -0.55007  -0.54497  -0.54371
 Alpha  occ. eigenvalues --   -0.54233  -0.53798  -0.53487  -0.52241  -0.51557
 Alpha  occ. eigenvalues --   -0.51283  -0.51017  -0.50872  -0.50157  -0.49738
 Alpha  occ. eigenvalues --   -0.49544  -0.48959  -0.48740  -0.48704  -0.48001
 Alpha  occ. eigenvalues --   -0.47797  -0.47518  -0.47383  -0.47240  -0.47026
 Alpha  occ. eigenvalues --   -0.46938  -0.46679  -0.46618  -0.46253  -0.45949
 Alpha  occ. eigenvalues --   -0.45802  -0.45627  -0.45443  -0.45381  -0.45131
 Alpha  occ. eigenvalues --   -0.44915  -0.44736  -0.44610  -0.44574  -0.44054
 Alpha  occ. eigenvalues --   -0.43943  -0.43779  -0.43468  -0.42927  -0.42853
 Alpha  occ. eigenvalues --   -0.42683  -0.42611  -0.42431  -0.42006  -0.41822
 Alpha  occ. eigenvalues --   -0.41652  -0.41543  -0.41243  -0.41169  -0.40691
 Alpha  occ. eigenvalues --   -0.40416  -0.40095  -0.39762  -0.39609  -0.39592
 Alpha  occ. eigenvalues --   -0.39389  -0.39204  -0.39188  -0.39013  -0.38843
 Alpha  occ. eigenvalues --   -0.38612  -0.38470  -0.38337  -0.38117  -0.37964
 Alpha  occ. eigenvalues --   -0.37840  -0.37685  -0.37387  -0.37046  -0.36863
 Alpha  occ. eigenvalues --   -0.36614  -0.36565  -0.36519  -0.35802  -0.35684
 Alpha  occ. eigenvalues --   -0.35651  -0.35353  -0.35185  -0.35150  -0.34900
 Alpha  occ. eigenvalues --   -0.34776  -0.34160  -0.34037  -0.34001  -0.33931
 Alpha  occ. eigenvalues --   -0.33911  -0.33386  -0.32873  -0.32786  -0.32728
 Alpha  occ. eigenvalues --   -0.31663  -0.31044  -0.30654  -0.29873  -0.29743
 Alpha  occ. eigenvalues --   -0.28208  -0.28169  -0.27949  -0.27628  -0.27339
 Alpha  occ. eigenvalues --   -0.26973  -0.26858  -0.26580  -0.26331  -0.25940
 Alpha  occ. eigenvalues --   -0.25799  -0.25640  -0.24759  -0.23989  -0.22600
 Alpha  occ. eigenvalues --   -0.21499  -0.19902  -0.18535
 Alpha virt. eigenvalues --   -0.11398  -0.09962  -0.06389  -0.04035  -0.03877
 Alpha virt. eigenvalues --   -0.02918  -0.02871  -0.02475  -0.01500  -0.01317
 Alpha virt. eigenvalues --   -0.00837  -0.00675  -0.00516  -0.00468  -0.00125

 Mulliken charges:
               1
     1  C   -0.267766
     2  C    0.018127
     3  C   -0.184048
     4  C   -0.180944
     5  S    0.302335
     6  C   -0.285311
     7  C    0.025445
     8  C    0.023350
     9  H    0.123218
    10  C    0.090827
    11  C   -0.112624
    12  C   -0.079349
    13  C    0.003136
    14  C    0.114646
    15  N   -0.496108
    16  S    0.577271
    17  N   -0.521277
    18  C    0.137990
    19  C   -0.040886
    20  C   -0.048931
    21  C   -0.112659
    22  C    0.161689
    23  C   -0.109532
    24  C   -0.078286
    25  H    0.109306
    26  H    0.121188
    27  N   -0.502616
    28  C    0.113683
    29  C   -0.093292
    30  C   -0.056415
    31  C   -0.089456
    32  C   -0.081607
    33  C   -0.087138
    34  H    0.116086
    35  H    0.106721
    36  C   -0.038881
    37  C   -0.073070
    38  C   -0.106616
    39  C    0.184065
    40  C   -0.101960
    41  C    0.110633
    42  O   -0.399635
    43  C   -0.112676
    44  H    0.107318
    45  H    0.124213
    46  H    0.116138
    47  H    0.116605
    48  O   -0.362816
    49  C   -0.138564
    50  H    0.137674
    51  H    0.124245
    52  H    0.122783
    53  H    0.108426
    54  H    0.109055
    55  H    0.106149
    56  H    0.114990
    57  C    0.102511
    58  C   -0.093734
    59  C   -0.048583
    60  C   -0.032629
    61  C   -0.081095
    62  C   -0.085700
    63  H    0.113491
    64  H    0.106956
    65  C   -0.103022
    66  C    0.193782
    67  C   -0.189447
    68  C    0.176578
    69  C   -0.115070
    70  C   -0.077242
    71  H    0.104449
    72  H    0.104039
    73  O   -0.364610
    74  C   -0.139781
    75  H    0.122236
    76  H    0.137796
    77  H    0.122262
    78  H    0.141274
    79  O   -0.370043
    80  C   -0.138649
    81  H    0.122281
    82  H    0.122741
    83  H    0.138356
    84  H    0.102329
    85  H    0.112790
    86  H    0.121068
    87  H    0.110159
    88  H    0.113323
    89  H    0.118408
    90  S    0.319200
    91  C   -0.304468
    92  C    0.028233
    93  H    0.116488
    94  C    0.028307
    95  C   -0.044535
    96  C   -0.061342
    97  C   -0.099123
    98  C   -0.050072
    99  C   -0.103652
   100  H    0.121649
   101  H    0.125990
   102  C    0.065880
   103  C   -0.203399
   104  C    0.018958
   105  N   -0.272877
   106  C    0.464679
   107  O   -0.357747
   108  O   -0.317436
   109  H    0.274987
   110  H    0.131057
   111  H    0.116939
   112  H    0.114905
   113  C   -0.219847
   114  H    0.119272
   115  H    0.118211
   116  H    0.120056
   117  C   -0.219680
   118  H    0.119251
   119  H    0.120073
   120  H    0.117968
 Sum of Mulliken charges =  -0.00000

 Dipole moment (field-independent basis, Debye):
    X=            -14.3897    Y=             -4.1586    Z=              7.8117  Tot=             16.8932
 Quadrupole moment (field-independent basis, Debye-Ang):
   XX=           -576.8253   YY=           -401.3273   ZZ=           -445.0201
   XY=             -8.2107   XZ=             32.7233   YZ=            -17.5753

 Normal termination of Gaussian 16 at Fri Jun  4 14:56:33 2021.
